          AutoDock 4.2 Release 4.2.6   
         (C) 1989-2012 The Scripps Research Institute
        AutoDock comes with ABSOLUTELY NO WARRANTY.
        AutoDock is free software, and you are welcome
        to redistribute it under certain conditions;
        for details type 'autodock4 -C'

                     main.cc  $Revision: 1.213 $

                   Compiled on Jul 18 2014 at 18:34:22


This file was created at:			6:47 04" p.m., 06/09/2026
                   on host:		"docking-1151-9zgnt"
Current Working Directory = "/data"

      ________________________________________________________________

                   SETTING UP DEFAULT PARAMETER LIBRARY
      ________________________________________________________________


Random number generator was seeded with values 15, 1781030824.
Docking parameter file (DPF) used for this docking:		config.dpf
DPF> autodock_parameter_version 4.2       # used by autodock to validate parameter set

	Autodock parameter version 4.2.
DPF> outlev 1                             # diagnostic output level

Output Level = 1  ADT-COMPATIBLE OUTPUT DURING DOCKING.
DPF> intelec                              # calculate internal electrostatics

Electrostatic energies will be calculated for all non-bonds between moving atoms.
DPF> seed pid time                        # seeds for random generator

Random number generator was seeded with values 15, 1781030824.
DPF> ligand_types A C N OA                # atoms types in ligand

DPF> fld receptor.maps.fld                # grid_data_file

Opening Grid Map Dimensions file:		receptor.maps.fld
Grid Point Spacing =				0.375 Angstroms

Even Number of User-specified Grid Points =	40 x-points
						40 y-points
						46 z-points

Coordinates of Central Grid Point of Maps =	(-11.703, 20.189, 28.021)
Macromolecule file used to create Grid Maps =	receptor.pdbqt
Grid Parameter file used to create Grid Maps =	config.gpf
Minimum coordinates in grid = (-19.203, 12.689, 19.396)
Maximum coordinates in grid = (-4.203, 27.689, 36.646)

DPF> map receptor.A.map                   # atom-specific affinity map

DPF> map receptor.C.map                   # atom-specific affinity map

DPF> map receptor.N.map                   # atom-specific affinity map

DPF> map receptor.OA.map                  # atom-specific affinity map

DPF> elecmap receptor.e.map               # electrostatics map

DPF> desolvmap receptor.d.map             # desolvation map

DPF> move ligand.pdbqt                    # small molecule

1,4-interactions will be _ignored_ in the non-bonded internal energy calculation.

Ligand PDBQT file = "ligand.pdbqt"

INPUT LIGAND PDBQT FILE:
________________________

INPUT-LIGAND-PDBQT: REMARK  8 active torsions:
INPUT-LIGAND-PDBQT: REMARK  status: ('A' for Active; 'I' for Inactive)
INPUT-LIGAND-PDBQT: REMARK    1  A    between atoms: N2_1849  and  C2_1850 
INPUT-LIGAND-PDBQT: REMARK    2  A    between atoms: C2_1850  and  C20_1859 
INPUT-LIGAND-PDBQT: REMARK    3  A    between atoms: C3_1851  and  C31_1869 
INPUT-LIGAND-PDBQT: REMARK    4  A    between atoms: C6_1856  and  C61_1876 
INPUT-LIGAND-PDBQT: REMARK    5  A    between atoms: N7_1857  and  C7_1858 
INPUT-LIGAND-PDBQT: REMARK    6  A    between atoms: C7_1858  and  C70_1883 
INPUT-LIGAND-PDBQT: REMARK    7  A    between atoms: C31_1869  and  C32_1870 
INPUT-LIGAND-PDBQT: REMARK    8  A    between atoms: C61_1876  and  C62_1877 
INPUT-LIGAND-PDBQT: ROOT
INPUT-LIGAND-PDBQT: HETATM    1  C1  XK2 A 263      -8.611  15.060  27.954  1.00 19.90     0.324 C 
INPUT-LIGAND-PDBQT: HETATM    2  O1  XK2 A 263      -7.939  14.039  27.941  1.00 20.46    -0.247 OA
INPUT-LIGAND-PDBQT: HETATM    3  N2  XK2 A 263      -8.461  15.923  26.905  1.00 18.96    -0.298 N 
INPUT-LIGAND-PDBQT: HETATM    4  C3  XK2 A 263      -8.627  17.388  27.011  1.00 16.64     0.123 C 
INPUT-LIGAND-PDBQT: HETATM    5  C4  XK2 A 263     -10.029  17.910  27.298  1.00 16.75     0.205 C 
INPUT-LIGAND-PDBQT: HETATM    6  O4  XK2 A 263      -9.929  19.274  26.998  1.00 17.20    -0.219 OA
INPUT-LIGAND-PDBQT: HETATM    7  C5  XK2 A 263     -10.461  17.645  28.733  1.00 16.33     0.205 C 
INPUT-LIGAND-PDBQT: HETATM    8  O5  XK2 A 263     -11.692  18.254  29.020  1.00 16.28    -0.219 OA
INPUT-LIGAND-PDBQT: HETATM    9  C6  XK2 A 263     -10.657  16.152  28.964  1.00 17.82     0.123 C 
INPUT-LIGAND-PDBQT: HETATM   10  N7  XK2 A 263      -9.461  15.294  29.004  1.00 18.56    -0.298 N 
INPUT-LIGAND-PDBQT: ENDROOT
INPUT-LIGAND-PDBQT: BRANCH   3  11
INPUT-LIGAND-PDBQT: HETATM   11  C2  XK2 A 263      -7.854  15.351  25.696  1.00 17.53     0.133 C 
INPUT-LIGAND-PDBQT: BRANCH  11  12
INPUT-LIGAND-PDBQT: HETATM   12  C20 XK2 A 263      -8.381  15.730  24.336  1.00 19.60     0.000 A 
INPUT-LIGAND-PDBQT: HETATM   13  C21 XK2 A 263      -9.769  15.712  24.022  1.00 21.97    -0.002 A 
INPUT-LIGAND-PDBQT: HETATM   14  C22 XK2 A 263     -10.195  15.919  22.694  1.00 22.13    -0.000 A 
INPUT-LIGAND-PDBQT: HETATM   15  C23 XK2 A 263      -9.219  16.152  21.693  1.00 22.78    -0.000 A 
INPUT-LIGAND-PDBQT: HETATM   16  C24 XK2 A 263      -9.608  16.304  20.349  1.00 23.58    -0.000 A 
INPUT-LIGAND-PDBQT: HETATM   17  C28 XK2 A 263      -7.828  16.192  22.022  1.00 23.18    -0.000 A 
INPUT-LIGAND-PDBQT: HETATM   18  C25 XK2 A 263      -8.626  16.508  19.349  1.00 26.36    -0.000 A 
INPUT-LIGAND-PDBQT: HETATM   19  C26 XK2 A 263      -7.263  16.562  19.662  1.00 24.91    -0.000 A 
INPUT-LIGAND-PDBQT: HETATM   20  C27 XK2 A 263      -6.860  16.403  21.006  1.00 26.98    -0.000 A 
INPUT-LIGAND-PDBQT: HETATM   21  C29 XK2 A 263      -7.408  15.983  23.346  1.00 20.82    -0.002 A 
INPUT-LIGAND-PDBQT: ENDBRANCH  11  12
INPUT-LIGAND-PDBQT: ENDBRANCH   3  11
INPUT-LIGAND-PDBQT: BRANCH   4  22
INPUT-LIGAND-PDBQT: HETATM   22  C31 XK2 A 263      -7.476  17.972  27.894  1.00 17.00     0.051 C 
INPUT-LIGAND-PDBQT: BRANCH  22  23
INPUT-LIGAND-PDBQT: HETATM   23  C32 XK2 A 263      -6.124  17.890  27.193  1.00 23.02    -0.020 A 
INPUT-LIGAND-PDBQT: HETATM   24  C37 XK2 A 263      -5.803  18.811  26.163  1.00 21.66    -0.004 A 
INPUT-LIGAND-PDBQT: HETATM   25  C36 XK2 A 263      -4.607  18.660  25.432  1.00 21.61    -0.000 A 
INPUT-LIGAND-PDBQT: HETATM   26  C35 XK2 A 263      -3.730  17.585  25.723  1.00 23.48    -0.000 A 
INPUT-LIGAND-PDBQT: HETATM   27  C34 XK2 A 263      -4.029  16.667  26.750  1.00 21.82    -0.000 A 
INPUT-LIGAND-PDBQT: HETATM   28  C33 XK2 A 263      -5.226  16.826  27.494  1.00 27.22    -0.004 A 
INPUT-LIGAND-PDBQT: ENDBRANCH  22  23
INPUT-LIGAND-PDBQT: ENDBRANCH   4  22
INPUT-LIGAND-PDBQT: BRANCH  10  29
INPUT-LIGAND-PDBQT: HETATM   29  C7  XK2 A 263      -9.271  14.491  30.215  1.00 19.97     0.133 C 
INPUT-LIGAND-PDBQT: BRANCH  29  30
INPUT-LIGAND-PDBQT: HETATM   30  C70 XK2 A 263      -9.374  15.148  31.571  1.00 20.15     0.000 A 
INPUT-LIGAND-PDBQT: HETATM   31  C71 XK2 A 263     -10.228  14.492  32.477  1.00 22.33    -0.002 A 
INPUT-LIGAND-PDBQT: HETATM   32  C72 XK2 A 263     -10.272  14.926  33.800  1.00 24.26    -0.000 A 
INPUT-LIGAND-PDBQT: HETATM   33  C73 XK2 A 263     -11.156  14.282  34.709  1.00 29.56    -0.000 A 
INPUT-LIGAND-PDBQT: HETATM   34  C77 XK2 A 263      -9.455  16.028  34.212  1.00 23.89    -0.000 A 
INPUT-LIGAND-PDBQT: HETATM   35  C74 XK2 A 263     -11.245  14.748  36.044  1.00 29.18    -0.000 A 
INPUT-LIGAND-PDBQT: HETATM   36  C75 XK2 A 263     -10.435  15.837  36.451  1.00 26.45    -0.000 A 
INPUT-LIGAND-PDBQT: HETATM   37  C76 XK2 A 263      -9.540  16.475  35.553  1.00 25.15    -0.000 A 
INPUT-LIGAND-PDBQT: HETATM   38  C78 XK2 A 263      -8.605  16.691  33.288  1.00 21.80    -0.000 A 
INPUT-LIGAND-PDBQT: HETATM   39  C79 XK2 A 263      -8.574  16.252  31.962  1.00 18.98    -0.002 A 
INPUT-LIGAND-PDBQT: ENDBRANCH  29  30
INPUT-LIGAND-PDBQT: ENDBRANCH  10  29
INPUT-LIGAND-PDBQT: BRANCH   9  40
INPUT-LIGAND-PDBQT: HETATM   40  C61 XK2 A 263     -11.712  15.451  28.079  1.00 20.34     0.051 C 
INPUT-LIGAND-PDBQT: BRANCH  40  41
INPUT-LIGAND-PDBQT: HETATM   41  C62 XK2 A 263     -12.310  14.248  28.779  1.00 20.04    -0.020 A 
INPUT-LIGAND-PDBQT: HETATM   42  C67 XK2 A 263     -11.992  12.954  28.304  1.00 19.66    -0.004 A 
INPUT-LIGAND-PDBQT: HETATM   43  C66 XK2 A 263     -12.529  11.814  28.944  1.00 18.58    -0.000 A 
INPUT-LIGAND-PDBQT: HETATM   44  C65 XK2 A 263     -13.374  11.982  30.058  1.00 19.90    -0.000 A 
INPUT-LIGAND-PDBQT: HETATM   45  C64 XK2 A 263     -13.700  13.281  30.542  1.00 19.34    -0.000 A 
INPUT-LIGAND-PDBQT: HETATM   46  C63 XK2 A 263     -13.167  14.422  29.898  1.00 20.49    -0.004 A 
INPUT-LIGAND-PDBQT: ENDBRANCH  40  41
INPUT-LIGAND-PDBQT: ENDBRANCH   9  40
INPUT-LIGAND-PDBQT: TORSDOF 8
________________________________________________________________________________

Total charge on ligand                               =	+0.003 e
REMARK  8 active torsions:
REMARK  status: ('A' for Active; 'I' for Inactive)
REMARK    1  A    between atoms: N2_1849  and  C2_1850 
REMARK    2  A    between atoms: C2_1850  and  C20_1859 
REMARK    3  A    between atoms: C3_1851  and  C31_1869 
REMARK    4  A    between atoms: C6_1856  and  C61_1876 
REMARK    5  A    between atoms: N7_1857  and  C7_1858 
REMARK    6  A    between atoms: C7_1858  and  C70_1883 
REMARK    7  A    between atoms: C31_1869  and  C32_1870 
REMARK    8  A    between atoms: C61_1876  and  C62_1877 


Number of Rotatable Bonds in Small Molecule =	8 torsions
Number of atoms in ligand:  46

Number of non-hydrogen atoms in ligand:  46

Number of vibrational degrees of freedom of ligand:  132


Number of torsional degrees of freedom = 8
Estimated loss of torsional free energy upon binding = +2.3864 kcal/mol


DPF> about -9.192 15.906 27.947            # small molecule center

Small molecule center of rotation =	(-9.192, +15.906, +27.947)

DPF> tran0 random                         # initial coordinates/A or random

Initial translation =			(-7.248, 17.304, 22.475) Angstroms
DPF> quaternion0 random                   # initial orientation

Each run will begin with a new, random initial orientation.
Initial quaternion,  (x,y,z,w) =	( -0.322, 0.889, 0.217, -0.243 ),
DPF> dihe0 random                         # initial dihedrals (relative) or random

DPF> torsdof 8                            # torsional degrees of freedom

Number of torsional degrees of freedom = 8
Free energy coefficient for torsional degrees of freedom = 0.2983, the factory default value.

Estimated loss of torsional free energy upon binding = +2.3864 kcal/mol

DPF> rmstol 2.0                           # cluster_tolerance/A

Maximum RMS tolerance for conformational cluster analysis = 2.00 Angstroms
DPF> extnrg 1000.0                        # external grid energy

External grid energy (beyond grid map walls) = 1000.00

DPF> e0max 0.0 10000                      # max initial energy; max number of retries

Using user-specified maximum number of retries for simanneal initialization, 10000 retries.
If the simanneal initial energy is greater than e0max, 0.000,
then a new, random initial state will be created.

DPF> ga_pop_size 150                      # number of individuals in population

A population of 150 individuals will be used
DPF> ga_num_evals 2500000                 # maximum number of energy evaluations

There will be at most 2500000 function evaluations used.
DPF> ga_num_generations 27000             # maximum number of generations

The GA will run for at most 27000 generations.
DPF> ga_elitism 1                         # number of top individuals to survive to next generation

The 1 best will be preserved each GA generation.
DPF> ga_mutation_rate 0.02                # rate of gene mutation

The mutation rate is 0.020000.
DPF> ga_crossover_rate 0.8                # rate of crossover

The crossover rate is 0.800000.
DPF> ga_window_size 10                    # 

The GA's selection window is 10 generations.
DPF> ga_cauchy_alpha 0.0                  # Alpha parameter of Cauchy distribution

The alpha parameter (for the Cauchy distribution) is being set to 0.000000.
DPF> ga_cauchy_beta 1.0                   # Beta parameter Cauchy distribution

The beta parameter (for the Cauchy distribution) is being set to 1.000000.
DPF> set_ga                               # set the above parameters for GA or LGA

DPF> sw_max_its 300                       # iterations of Solis & Wets local search

Solis & Wets algorithms will perform at most 300 iterations.
DPF> sw_max_succ 4                        # consecutive successes before changing rho

Solis & Wets algorithms expand rho every 4 in a row successes.
DPF> sw_max_fail 4                        # consecutive failures before changing rho

Solis & Wets algorithms contract rho every 4 in a row failures.
DPF> sw_rho 1.0                           # size of local search space to sample

rho is set to 1.000000.
DPF> sw_lb_rho 0.01                       # lower bound on rho

rho will never get smaller than 0.010000.
DPF> ls_search_freq 0.06                  # probability of performing local search on individual

Local search will be performed with frequency 0.060000.
DPF> set_psw1                             # set the above pseudo-Solis & Wets parameters

Creating a new Local Search object using the pseudo-Solis-Wets algorithm (pSW1) with the current settings.

DPF> unbound_model extended               # state of unbound ligand

autodock4: WARNING: Using autodock4.0 unbound extended model in autodock4.2!
Computing the energy of the unbound state of the ligand,
given the torsion tree defined in the ligand file.


	BEGINNING COMPUTATION OF UNBOUND EXTENDED STATE USING LGA
	_________________________________________________________


Date:	Tue Jun  9 18:47:04 2026
Beginning LAMARCKIAN GENETIC ALGORITHM (LGA), with a maximum of 1000000 energy evaluations.

Final-Value: -5545.403

Finished Lamarckian Genetic Algorithm (LGA)
6:47 09" p.m., 06/09/2026

Total number of Energy Evaluations: 1000117
Total number of Generations:        529


		Ligand Intramolecular Energy Analysis
		=====================================

Non-bond  Atom1-Atom2  Distance   Total        Elec     vdW        Hb     Desolv     Sol_fn   Type Dielectric
________  ___________  ________   ______  _________  ________ ________  ________   ________   ____ __________
      1       1-13      3.4649   -0.0130    -0.0006   -0.0170   +0.0000   +0.0045    +0.0832   1    15.530
      2       1-14      4.8322   -0.0143    -0.0000   -0.0172   +0.0000   +0.0029    +0.0537   1    23.699
      3       1-15      5.7669   -0.0048    -0.0000   -0.0067   +0.0000   +0.0020    +0.0367   1    29.871
      4       1-16      7.1182   -0.0009    -0.0000   -0.0019   +0.0000   +0.0010    +0.0187   1    39.097
      5       1-17      5.6517   -0.0055    -0.0000   -0.0076   +0.0000   +0.0021    +0.0386   1    29.095
      6       1-18      8.1582   +0.0005    -0.0000   +0.0000   +0.0000   +0.0005    +0.0102   1    45.987
      7       1-19      8.0947   +0.0006    -0.0000   +0.0000   +0.0000   +0.0006    +0.0106   1    45.579
      8       1-20      6.9337   -0.0011    -0.0000   -0.0022   +0.0000   +0.0011    +0.0207   1    37.840
      9       1-21      4.5526   -0.0189    -0.0003   -0.0218   +0.0000   +0.0032    +0.0594   1    21.931
     10       1-23      4.5565   -0.0212    -0.0030   -0.0218   +0.0000   +0.0036    +0.0594   1    21.952
     11       1-24      5.1719   -0.0102    -0.0005   -0.0123   +0.0000   +0.0026    +0.0472   1    25.887
     12       1-25      6.5744   -0.0018    -0.0000   -0.0031   +0.0000   +0.0013    +0.0250   1    35.386
     13       1-26      7.3341   -0.0007    -0.0000   -0.0016   +0.0000   +0.0009    +0.0166   1    40.561
     14       1-27      6.9338   -0.0011    -0.0000   -0.0022   +0.0000   +0.0011    +0.0207   1    37.840
     15       1-28      5.6077   -0.0061    -0.0004   -0.0079   +0.0000   +0.0022    +0.0393   1    28.796
     16       1-31      4.4884   -0.0198    -0.0003   -0.0228   +0.0000   +0.0033    +0.0608   1    21.522
     17       1-32      5.5465   -0.0062    -0.0000   -0.0084   +0.0000   +0.0022    +0.0404   1    28.383
     18       1-33      6.8376   -0.0013    -0.0000   -0.0024   +0.0000   +0.0012    +0.0218   1    37.189
     19       1-34      5.6037   -0.0058    -0.0000   -0.0079   +0.0000   +0.0021    +0.0394   1    28.759
     20       1-35      7.9683   -0.0003    -0.0000   -0.0010   +0.0000   +0.0006    +0.0114   1    44.760
     21       1-36      7.9973   -0.0003    -0.0000   -0.0009   +0.0000   +0.0006    +0.0112   1    44.951
     22       1-37      6.9430   -0.0011    -0.0000   -0.0022   +0.0000   +0.0011    +0.0206   1    37.902
     23       1-38      4.6314   -0.0175    -0.0000   -0.0206   +0.0000   +0.0031    +0.0578   1    22.421
     24       1-39      3.2833   +0.0110    -0.0006   +0.0068   +0.0000   +0.0048    +0.0873   1    14.526
     25       1-41      4.5411   -0.0215    -0.0031   -0.0221   +0.0000   +0.0037    +0.0597   1    21.845
     26       1-42      5.5798   -0.0063    -0.0004   -0.0081   +0.0000   +0.0022    +0.0398   1    28.609
     27       1-43      6.8889   -0.0012    -0.0000   -0.0023   +0.0000   +0.0011    +0.0212   1    37.531
     28       1-44      7.2832   -0.0007    -0.0000   -0.0017   +0.0000   +0.0009    +0.0171   1    40.214
     29       1-45      6.5274   -0.0019    -0.0000   -0.0032   +0.0000   +0.0014    +0.0256   1    35.059
     30       1-46      5.1288   -0.0107    -0.0005   -0.0129   +0.0000   +0.0026    +0.0480   1    25.608
     31       2-12      3.3682   -0.0290    -0.0000   -0.0288   +0.0000   -0.0002    +0.0853   1    15.006
     32       2-13      3.2996   -0.0282    +0.0005   -0.0285   +0.0000   -0.0002    +0.0869   1    14.628
     33       2-14      4.6443   -0.0150    +0.0000   -0.0148   +0.0000   -0.0001    +0.0575   1    22.506
     34       2-15      5.7063   -0.0047    +0.0000   -0.0046   +0.0000   -0.0001    +0.0377   1    29.447
     35       2-16      7.0162   -0.0013    +0.0000   -0.0013   +0.0000   -0.0000    +0.0198   1    38.405
     36       2-17      5.7457   -0.0045    +0.0000   -0.0044   +0.0000   -0.0001    +0.0370   1    29.724
     37       2-18      8.1329   -0.0000    +0.0000   +0.0000   +0.0000   -0.0000    +0.0103   1    45.827
     38       2-19      8.1774   -0.0000    +0.0000   +0.0000   +0.0000   -0.0000    +0.0100   1    46.110
     39       2-20      7.0831   -0.0013    +0.0000   -0.0012   +0.0000   -0.0000    +0.0191   1    38.858
     40       2-21      4.7378   -0.0132    +0.0002   -0.0133   +0.0000   -0.0001    +0.0556   1    23.096
     41       2-23      5.3185   -0.0053    +0.0016   -0.0069   +0.0000   +0.0001    +0.0444   1    26.869
     42       2-24      5.6916   -0.0044    +0.0003   -0.0046   +0.0000   -0.0001    +0.0379   1    29.355
     43       2-25      7.0910   -0.0013    +0.0000   -0.0012   +0.0000   -0.0000    +0.0190   1    38.918
     44       2-26      8.0086   -0.0000    +0.0000   +0.0000   +0.0000   -0.0000    +0.0111   1    45.027
     45       2-27      7.7676   -0.0007    +0.0000   -0.0007   +0.0000   -0.0000    +0.0129   1    43.446
     46       2-28      6.5033   -0.0019    +0.0002   -0.0021   +0.0000   -0.0000    +0.0259   1    34.894
     47       2-30      3.2034   -0.0266    -0.0000   -0.0264   +0.0000   -0.0002    +0.0890   1    14.116
     48       2-31      4.5976   -0.0155    +0.0002   -0.0156   +0.0000   -0.0001    +0.0585   1    22.208
     49       2-32      5.5202   -0.0057    +0.0000   -0.0056   +0.0000   -0.0001    +0.0408   1    28.212
     50       2-33      6.8861   -0.0015    +0.0000   -0.0015   +0.0000   -0.0000    +0.0212   1    37.516
     51       2-34      5.3782   -0.0066    +0.0000   -0.0065   +0.0000   -0.0001    +0.0433   1    27.256
     52       2-35      7.9349   -0.0006    +0.0000   -0.0006   +0.0000   -0.0000    +0.0117   1    44.543
     53       2-36      7.8269   -0.0007    +0.0000   -0.0007   +0.0000   -0.0000    +0.0124   1    43.842
     54       2-37      6.6721   -0.0018    +0.0000   -0.0018   +0.0000   -0.0001    +0.0237   1    36.049
     55       2-38      4.2555   -0.0226    +0.0000   -0.0225   +0.0000   -0.0001    +0.0658   1    20.096
     56       2-39      2.9589   +0.0006    +0.0006   +0.0002   +0.0000   -0.0002    +0.0943   1    12.852
     57       2-41      5.3712   -0.0049    +0.0016   -0.0065   +0.0000   +0.0001    +0.0434   1    27.218
     58       2-42      6.5366   -0.0018    +0.0002   -0.0020   +0.0000   -0.0000    +0.0254   1    35.124
     59       2-43      7.7943   -0.0007    +0.0000   -0.0007   +0.0000   -0.0000    +0.0127   1    43.631
     60       2-44      8.0403   -0.0000    +0.0000   +0.0000   +0.0000   -0.0000    +0.0109   1    45.229
     61       2-45      7.1290   -0.0012    +0.0000   -0.0012   +0.0000   -0.0000    +0.0186   1    39.172
     62       2-46      5.7290   -0.0042    +0.0003   -0.0045   +0.0000   -0.0001    +0.0373   1    29.613
     63       3-14      4.6470   -0.0135    +0.0000   -0.0160   +0.0000   +0.0025    +0.0575   1    22.527
     64       3-15      5.2771   -0.0062    +0.0000   -0.0081   +0.0000   +0.0020    +0.0452   1    26.596
     65       3-16      6.6736   -0.0010    +0.0000   -0.0020   +0.0000   +0.0010    +0.0237   1    36.065
     66       3-17      4.8516   -0.0106    +0.0000   -0.0129   +0.0000   +0.0023    +0.0533   1    23.823
     67       3-18      7.5346   -0.0003    +0.0000   -0.0010   +0.0000   +0.0006    +0.0148   1    41.901
     68       3-19      7.2654   -0.0004    +0.0000   -0.0012   +0.0000   +0.0008    +0.0173   1    40.098
     69       3-20      6.0024   -0.0024    +0.0000   -0.0038   +0.0000   +0.0014    +0.0330   1    31.457
     70       3-24      4.2042   -0.0203    +0.0007   -0.0239   +0.0000   +0.0030    +0.0669   1    19.784
     71       3-25      5.5632   -0.0042    +0.0000   -0.0060   +0.0000   +0.0017    +0.0401   1    28.496
     72       3-26      6.3326   -0.0015    +0.0000   -0.0028   +0.0000   +0.0012    +0.0281   1    33.726
     73       3-27      6.0103   -0.0024    +0.0000   -0.0038   +0.0000   +0.0014    +0.0328   1    31.511
     74       3-28      4.7638   -0.0112    +0.0005   -0.0142   +0.0000   +0.0025    +0.0551   1    23.263
     75       3-30      4.3597   -0.0184    -0.0000   -0.0212   +0.0000   +0.0028    +0.0635   1    20.737
     76       3-31      5.6132   -0.0038    +0.0002   -0.0057   +0.0000   +0.0017    +0.0392   1    28.834
     77       3-32      6.6029   -0.0011    +0.0000   -0.0021   +0.0000   +0.0011    +0.0246   1    35.581
     78       3-33      7.8785   -0.0002    +0.0000   -0.0007   +0.0000   +0.0005    +0.0121   1    44.181
     79       3-34      6.5696   -0.0011    +0.0000   -0.0022   +0.0000   +0.0011    +0.0250   1    35.353
     80       3-35      8.9565   +0.0003    +0.0000   +0.0000   +0.0000   +0.0003    +0.0060   1    50.920
     81       3-36      8.9230   +0.0003    +0.0000   +0.0000   +0.0000   +0.0003    +0.0061   1    50.723
     82       3-37      7.8371   -0.0002    +0.0000   -0.0007   +0.0000   +0.0005    +0.0124   1    43.907
     83       3-38      5.5356   -0.0044    +0.0000   -0.0062   +0.0000   +0.0018    +0.0406   1    28.307
     84       3-39      4.3011   -0.0191    +0.0003   -0.0223   +0.0000   +0.0029    +0.0648   1    20.363
     85       3-41      4.9896   -0.0064    +0.0023   -0.0111   +0.0000   +0.0025    +0.0506   1    24.703
     86       3-42      5.7748   -0.0029    +0.0003   -0.0048   +0.0000   +0.0016    +0.0365   1    29.926
     87       3-43      7.1666   -0.0005    +0.0000   -0.0013   +0.0000   +0.0008    +0.0182   1    39.424
     88       3-44      7.7898   -0.0002    +0.0000   -0.0008   +0.0000   +0.0006    +0.0127   1    43.592
     89       3-45      7.2345   -0.0005    +0.0000   -0.0012   +0.0000   +0.0008    +0.0176   1    39.880
     90       3-46      5.8608   -0.0025    +0.0003   -0.0044   +0.0000   +0.0016    +0.0351   1    30.508
     91       4-13      4.5522   -0.0231    -0.0001   -0.0218   +0.0000   -0.0012    +0.0594   1    21.931
     92       4-14      5.7962   -0.0073    -0.0000   -0.0065   +0.0000   -0.0007    +0.0362   1    30.072
     93       4-15      6.2113   -0.0050    -0.0000   -0.0044   +0.0000   -0.0006    +0.0299   1    32.890
     94       4-16      7.5807   -0.0016    -0.0000   -0.0013   +0.0000   -0.0003    +0.0144   1    42.204
     95       4-17      5.5528   -0.0092    -0.0000   -0.0084   +0.0000   -0.0008    +0.0403   1    28.420
     96       4-18      8.2744   -0.0002    -0.0000   +0.0000   +0.0000   -0.0002    +0.0094   1    46.727
     97       4-19      7.8167   -0.0013    -0.0000   -0.0011   +0.0000   -0.0003    +0.0125   1    43.776
     98       4-20      6.4906   -0.0039    -0.0000   -0.0033   +0.0000   -0.0005    +0.0260   1    34.812
     99       4-21      4.2568   -0.0263    -0.0001   -0.0249   +0.0000   -0.0013    +0.0658   1    20.096
    100       4-25      4.6917   -0.0207    -0.0000   -0.0196   +0.0000   -0.0011    +0.0566   1    22.802
    101       4-26      5.2097   -0.0128    -0.0000   -0.0119   +0.0000   -0.0009    +0.0464   1    26.144
    102       4-27      4.7026   -0.0205    -0.0000   -0.0194   +0.0000   -0.0011    +0.0564   1    22.865
    103       4-30      4.8993   -0.0172    +0.0000   -0.0162   +0.0000   -0.0011    +0.0524   1    24.132
    104       4-31      5.9514   -0.0063    -0.0001   -0.0056   +0.0000   -0.0007    +0.0337   1    31.119
    105       4-32      6.8920   -0.0028    -0.0000   -0.0023   +0.0000   -0.0004    +0.0212   1    37.547
    106       4-33      8.0495   -0.0002    -0.0000   +0.0000   +0.0000   -0.0002    +0.0109   1    45.292
    107       4-34      6.9382   -0.0026    -0.0000   -0.0022   +0.0000   -0.0004    +0.0206   1    37.871
    108       4-35      9.0983   -0.0001    -0.0000   +0.0000   +0.0000   -0.0001    +0.0054   1    51.755
    109       4-36      9.1243   -0.0001    -0.0000   +0.0000   +0.0000   -0.0001    +0.0053   1    51.914
    110       4-37      8.1409   -0.0002    -0.0000   +0.0000   +0.0000   -0.0002    +0.0103   1    45.876
    111       4-38      6.0563   -0.0057    -0.0000   -0.0051   +0.0000   -0.0006    +0.0321   1    31.829
    112       4-39      4.9513   -0.0165    -0.0001   -0.0154   +0.0000   -0.0010    +0.0514   1    24.459
    113       4-41      5.1622   -0.0139    -0.0009   -0.0125   +0.0000   -0.0006    +0.0473   1    25.827
    114       4-42      5.6374   -0.0086    -0.0001   -0.0077   +0.0000   -0.0007    +0.0388   1    28.983
    115       4-43      7.0198   -0.0025    -0.0000   -0.0021   +0.0000   -0.0004    +0.0198   1    38.420
    116       4-44      7.8376   -0.0013    -0.0000   -0.0011   +0.0000   -0.0002    +0.0124   1    43.907
    117       4-45      7.5122   -0.0017    -0.0000   -0.0014   +0.0000   -0.0003    +0.0150   1    41.748
    118       4-46      6.2410   -0.0049    -0.0001   -0.0042   +0.0000   -0.0005    +0.0294   1    33.096
    119       5-12      4.4084   -0.0233    +0.0000   -0.0239   +0.0000   +0.0006    +0.0625   1    21.022
    120       5-13      5.1433   -0.0123    -0.0001   -0.0127   +0.0000   +0.0005    +0.0477   1    25.708
    121       5-14      6.2330   -0.0040    -0.0000   -0.0043   +0.0000   +0.0003    +0.0295   1    33.045
    122       5-15      6.6287   -0.0027    -0.0000   -0.0029   +0.0000   +0.0002    +0.0243   1    35.759
    123       5-16      7.9081   -0.0009    -0.0000   -0.0010   +0.0000   +0.0001    +0.0118   1    44.375
    124       5-17      6.0603   -0.0047    -0.0000   -0.0050   +0.0000   +0.0003    +0.0321   1    31.864
    125       5-18      8.5867   +0.0001    -0.0000   +0.0000   +0.0000   +0.0001    +0.0077   1    48.689
    126       5-19      8.1760   +0.0001    -0.0000   +0.0000   +0.0000   +0.0001    +0.0100   1    46.110
    127       5-20      6.9420   -0.0020    -0.0000   -0.0022   +0.0000   +0.0002    +0.0206   1    37.902
    128       5-21      4.9492   -0.0150    -0.0002   -0.0154   +0.0000   +0.0006    +0.0514   1    24.439
    129       5-24      4.5755   -0.0212    -0.0004   -0.0215   +0.0000   +0.0007    +0.0590   1    22.059
    130       5-25      5.6719   -0.0070    -0.0000   -0.0074   +0.0000   +0.0004    +0.0382   1    29.225
    131       5-26      5.8680   -0.0057    -0.0000   -0.0061   +0.0000   +0.0004    +0.0351   1    30.544
    132       5-27      5.0551   -0.0134    -0.0000   -0.0139   +0.0000   +0.0005    +0.0494   1    25.128
    133       5-28      3.7628   -0.0246    -0.0006   -0.0249   +0.0000   +0.0009    +0.0766   1    17.203
    134       5-30      5.3307   -0.0101    +0.0000   -0.0105   +0.0000   +0.0004    +0.0442   1    26.946
    135       5-31      6.1677   -0.0043    -0.0001   -0.0045   +0.0000   +0.0003    +0.0305   1    32.597
    136       5-32      7.2469   -0.0015    -0.0000   -0.0017   +0.0000   +0.0002    +0.0174   1    39.967
    137       5-33      8.2452   +0.0001    -0.0000   +0.0000   +0.0000   +0.0001    +0.0096   1    46.547
    138       5-34      7.5747   -0.0012    -0.0000   -0.0013   +0.0000   +0.0001    +0.0145   1    42.177
    139       5-35      9.3991   +0.0000    -0.0000   +0.0000   +0.0000   +0.0000    +0.0044   1    53.475
    140       5-36      9.6431   +0.0000    -0.0000   +0.0000   +0.0000   +0.0000    +0.0037   1    54.823
    141       5-37      8.8243   +0.0001    -0.0000   +0.0000   +0.0000   +0.0001    +0.0066   1    50.133
    142       5-38      6.9058   -0.0021    -0.0000   -0.0023   +0.0000   +0.0002    +0.0210   1    37.655
    143       5-39      5.7523   -0.0065    -0.0001   -0.0068   +0.0000   +0.0004    +0.0369   1    29.761
    144       5-41      4.1926   -0.0261    -0.0023   -0.0249   +0.0000   +0.0012    +0.0671   1    19.717
    145       5-42      4.3806   -0.0239    -0.0004   -0.0242   +0.0000   +0.0007    +0.0631   1    20.869
    146       5-43      5.7252   -0.0067    -0.0000   -0.0070   +0.0000   +0.0004    +0.0374   1    29.577
    147       5-44      6.6772   -0.0026    -0.0000   -0.0028   +0.0000   +0.0002    +0.0237   1    36.081
    148       5-45      6.5665   -0.0029    -0.0000   -0.0031   +0.0000   +0.0003    +0.0251   1    35.321
    149       5-46      5.4358   -0.0092    -0.0003   -0.0094   +0.0000   +0.0005    +0.0423   1    27.641
    150       6-12      5.3495   -0.0073    -0.0000   -0.0067   +0.0000   -0.0005    +0.0439   1    27.063
    151       6-13      6.2726   -0.0028    +0.0001   -0.0026   +0.0000   -0.0004    +0.0290   1    33.319
    152       6-14      7.2998   -0.0012    +0.0000   -0.0010   +0.0000   -0.0002    +0.0169   1    40.330
    153       6-15      7.4944   -0.0011    +0.0000   -0.0009   +0.0000   -0.0002    +0.0151   1    41.637
    154       6-16      8.7341   -0.0001    +0.0000   +0.0000   +0.0000   -0.0001    +0.0070   1    49.595
    155       6-17      6.7236   -0.0020    +0.0000   -0.0017   +0.0000   -0.0003    +0.0231   1    36.400
    156       6-18      9.2347   -0.0001    +0.0000   +0.0000   +0.0000   -0.0001    +0.0049   1    52.543
    157       6-19      8.6437   -0.0001    +0.0000   +0.0000   +0.0000   -0.0001    +0.0074   1    49.035
    158       6-20      7.3831   -0.0011    +0.0000   -0.0009   +0.0000   -0.0002    +0.0161   1    40.890
    159       6-21      5.6077   -0.0054    +0.0001   -0.0051   +0.0000   -0.0005    +0.0393   1    28.796
    160       6-23      3.1102   -0.0167    +0.0048   -0.0207   +0.0000   -0.0008    +0.0911   1    13.622
    161       6-24      4.2920   -0.0219    +0.0005   -0.0216   +0.0000   -0.0008    +0.0650   1    20.318
    162       6-25      5.1109   -0.0094    +0.0000   -0.0088   +0.0000   -0.0006    +0.0483   1    25.489
    163       6-26      5.0137   -0.0104    +0.0000   -0.0098   +0.0000   -0.0006    +0.0501   1    24.865
    164       6-27      4.0626   -0.0272    +0.0000   -0.0264   +0.0000   -0.0009    +0.0699   1    18.948
    165       6-28      2.9432   +0.0035    +0.0011   +0.0035   +0.0000   -0.0011    +0.0947   1    12.772
    166       6-30      6.4013   -0.0026    -0.0000   -0.0023   +0.0000   -0.0003    +0.0272   1    34.197
    167       6-31      7.1283   -0.0013    +0.0001   -0.0012   +0.0000   -0.0002    +0.0186   1    39.157
    168       6-32      8.0907   -0.0001    +0.0000   +0.0000   +0.0000   -0.0001    +0.0106   1    45.554
    169       6-33      9.0032   -0.0001    +0.0000   +0.0000   +0.0000   -0.0001    +0.0058   1    51.198
    170       6-34      8.3823   -0.0001    +0.0000   +0.0000   +0.0000   -0.0001    +0.0088   1    47.415
    171       6-35     10.0722   -0.0000    +0.0000   +0.0000   +0.0000   -0.0000    +0.0026   1    57.078
    172       6-36     10.2980   -0.0000    +0.0000   +0.0000   +0.0000   -0.0000    +0.0022   1    58.202
    173       6-37      9.5307   -0.0000    +0.0000   +0.0000   +0.0000   -0.0000    +0.0040   1    54.209
    174       6-38      7.7672   -0.0009    +0.0000   -0.0007   +0.0000   -0.0002    +0.0129   1    43.446
    175       6-39      6.7484   -0.0018    +0.0001   -0.0016   +0.0000   -0.0003    +0.0228   1    36.575
    176       6-41      5.2751   -0.0062    +0.0015   -0.0073   +0.0000   -0.0004    +0.0452   1    26.576
    177       6-42      5.1589   -0.0085    +0.0003   -0.0083   +0.0000   -0.0006    +0.0474   1    25.807
    178       6-43      6.3922   -0.0026    +0.0000   -0.0023   +0.0000   -0.0003    +0.0273   1    34.130
    179       6-44      7.4938   -0.0011    +0.0000   -0.0009   +0.0000   -0.0002    +0.0151   1    41.637
    180       6-45      7.5861   -0.0010    +0.0000   -0.0008   +0.0000   -0.0002    +0.0144   1    42.245
    181       6-46      6.5813   -0.0020    +0.0002   -0.0019   +0.0000   -0.0003    +0.0249   1    35.435
    182       7-12      5.3448   -0.0099    +0.0000   -0.0103   +0.0000   +0.0004    +0.0439   1    27.043
    183       7-13      5.7872   -0.0063    -0.0001   -0.0066   +0.0000   +0.0004    +0.0363   1    29.999
    184       7-14      6.9153   -0.0021    -0.0000   -0.0023   +0.0000   +0.0002    +0.0209   1    37.717
    185       7-15      7.5455   -0.0012    -0.0000   -0.0013   +0.0000   +0.0001    +0.0147   1    41.970
    186       7-16      8.8097   +0.0001    -0.0000   +0.0000   +0.0000   +0.0001    +0.0066   1    50.047
    187       7-17      7.1956   -0.0016    -0.0000   -0.0018   +0.0000   +0.0002    +0.0180   1    39.616
    188       7-18      9.6362   +0.0000    -0.0000   +0.0000   +0.0000   +0.0000    +0.0037   1    54.788
    189       7-19      9.3807   +0.0000    -0.0000   +0.0000   +0.0000   +0.0000    +0.0044   1    53.372
    190       7-20      8.2034   +0.0001    -0.0000   +0.0000   +0.0000   +0.0001    +0.0099   1    46.280
    191       7-21      6.1326   -0.0045    -0.0001   -0.0047   +0.0000   +0.0003    +0.0310   1    32.354
    192       7-23      4.2169   -0.0261    -0.0023   -0.0249   +0.0000   +0.0012    +0.0666   1    19.873
    193       7-24      5.4853   -0.0087    -0.0002   -0.0090   +0.0000   +0.0005    +0.0415   1    27.966
    194       7-25      6.6274   -0.0027    -0.0000   -0.0030   +0.0000   +0.0002    +0.0243   1    35.743
    195       7-26      6.7476   -0.0024    -0.0000   -0.0026   +0.0000   +0.0002    +0.0228   1    36.559
    196       7-27      5.7835   -0.0063    -0.0000   -0.0066   +0.0000   +0.0004    +0.0364   1    29.981
    197       7-28      4.4115   -0.0236    -0.0004   -0.0239   +0.0000   +0.0007    +0.0625   1    21.044
    198       7-30      4.4630   -0.0226    +0.0000   -0.0232   +0.0000   +0.0006    +0.0613   1    21.370
    199       7-31      5.0531   -0.0135    -0.0002   -0.0139   +0.0000   +0.0005    +0.0494   1    25.128
    200       7-32      6.1945   -0.0041    -0.0000   -0.0044   +0.0000   +0.0003    +0.0301   1    32.770
    201       7-33      7.0582   -0.0018    -0.0000   -0.0020   +0.0000   +0.0002    +0.0193   1    38.693
    202       7-34      6.7560   -0.0024    -0.0000   -0.0026   +0.0000   +0.0002    +0.0227   1    36.623
    203       7-35      8.2788   +0.0001    -0.0000   +0.0000   +0.0000   +0.0001    +0.0094   1    46.763
    204       7-36      8.6933   +0.0001    -0.0000   +0.0000   +0.0000   +0.0001    +0.0072   1    49.344
    205       7-37      8.0280   +0.0001    -0.0000   +0.0000   +0.0000   +0.0001    +0.0110   1    45.153
    206       7-38      6.3254   -0.0036    -0.0000   -0.0039   +0.0000   +0.0003    +0.0283   1    33.675
    207       7-39      5.1991   -0.0117    -0.0001   -0.0120   +0.0000   +0.0005    +0.0466   1    26.065
    208       7-42      3.7227   -0.0246    -0.0006   -0.0249   +0.0000   +0.0009    +0.0775   1    16.965
    209       7-43      4.9581   -0.0148    -0.0000   -0.0153   +0.0000   +0.0005    +0.0512   1    24.500
    210       7-44      5.7514   -0.0065    -0.0000   -0.0068   +0.0000   +0.0004    +0.0369   1    29.761
    211       7-45      5.5768   -0.0078    -0.0000   -0.0082   +0.0000   +0.0004    +0.0398   1    28.590
    212       7-46      4.5152   -0.0221    -0.0004   -0.0224   +0.0000   +0.0007    +0.0602   1    21.694
    213       8-12      6.3936   -0.0026    -0.0000   -0.0023   +0.0000   -0.0003    +0.0273   1    34.147
    214       8-13      6.7548   -0.0018    +0.0001   -0.0016   +0.0000   -0.0003    +0.0227   1    36.623
    215       8-14      7.7351   -0.0009    +0.0000   -0.0007   +0.0000   -0.0002    +0.0132   1    43.233
    216       8-15      8.3050   -0.0001    +0.0000   +0.0000   +0.0000   -0.0001    +0.0092   1    46.931
    217       8-16      9.4706   -0.0001    +0.0000   +0.0000   +0.0000   -0.0001    +0.0042   1    53.881
    218       8-17      7.9952   -0.0007    +0.0000   -0.0006   +0.0000   -0.0001    +0.0112   1    44.938
    219       8-18     10.2491   -0.0000    +0.0000   +0.0000   +0.0000   -0.0000    +0.0023   1    57.963
    220       8-19     10.0127   -0.0000    +0.0000   +0.0000   +0.0000   -0.0000    +0.0028   1    56.776
    221       8-20      8.9181   -0.0001    +0.0000   +0.0000   +0.0000   -0.0001    +0.0061   1    50.702
    222       8-21      7.0630   -0.0014    +0.0001   -0.0012   +0.0000   -0.0002    +0.0193   1    38.723
    223       8-23      5.2587   -0.0064    +0.0015   -0.0074   +0.0000   -0.0004    +0.0455   1    26.459
    224       8-24      6.5913   -0.0020    +0.0002   -0.0019   +0.0000   -0.0003    +0.0247   1    35.500
    225       8-25      7.6042   -0.0010    +0.0000   -0.0008   +0.0000   -0.0002    +0.0142   1    42.369
    226       8-26      7.5168   -0.0010    +0.0000   -0.0008   +0.0000   -0.0002    +0.0149   1    41.790
    227       8-27      6.3976   -0.0026    +0.0000   -0.0023   +0.0000   -0.0003    +0.0273   1    34.164
    228       8-28      5.1364   -0.0088    +0.0003   -0.0085   +0.0000   -0.0006    +0.0478   1    25.668
    229       8-30      5.4832   -0.0063    -0.0000   -0.0058   +0.0000   -0.0005    +0.0415   1    27.966
    230       8-31      5.8257   -0.0043    +0.0001   -0.0040   +0.0000   -0.0004    +0.0357   1    30.272
    231       8-32      6.9858   -0.0016    +0.0000   -0.0013   +0.0000   -0.0003    +0.0201   1    38.192
    232       8-33      7.6460   -0.0009    +0.0000   -0.0008   +0.0000   -0.0002    +0.0139   1    42.641
    233       8-34      7.7372   -0.0009    +0.0000   -0.0007   +0.0000   -0.0002    +0.0131   1    43.247
    234       8-35      8.8978   -0.0001    +0.0000   +0.0000   +0.0000   -0.0001    +0.0062   1    50.577
    235       8-36      9.4846   -0.0001    +0.0000   +0.0000   +0.0000   -0.0001    +0.0041   1    53.954
    236       8-37      8.9802   -0.0001    +0.0000   +0.0000   +0.0000   -0.0001    +0.0059   1    51.065
    237       8-38      7.4803   -0.0011    +0.0000   -0.0009   +0.0000   -0.0002    +0.0153   1    41.539
    238       8-39      6.3963   -0.0025    +0.0001   -0.0023   +0.0000   -0.0003    +0.0273   1    34.164
    239       8-41      3.1651   -0.0206    +0.0046   -0.0245   +0.0000   -0.0008    +0.0899   1    13.909
    240       8-42      2.9540   +0.0012    +0.0011   +0.0012   +0.0000   -0.0011    +0.0944   1    12.825
    241       8-43      3.9974   -0.0284    +0.0000   -0.0275   +0.0000   -0.0009    +0.0714   1    18.558
    242       8-44      4.9432   -0.0113    +0.0000   -0.0106   +0.0000   -0.0006    +0.0516   1    24.398
    243       8-45      5.0848   -0.0096    +0.0000   -0.0090   +0.0000   -0.0006    +0.0488   1    25.329
    244       8-46      4.3145   -0.0214    +0.0005   -0.0211   +0.0000   -0.0008    +0.0645   1    20.451
    245       9-12      4.9325   -0.0167    +0.0000   -0.0156   +0.0000   -0.0010    +0.0517   1    24.337
    246       9-13      5.0152   -0.0155    -0.0001   -0.0145   +0.0000   -0.0010    +0.0501   1    24.865
    247       9-14      6.1221   -0.0054    -0.0000   -0.0047   +0.0000   -0.0006    +0.0311   1    32.284
    248       9-15      6.9822   -0.0026    -0.0000   -0.0021   +0.0000   -0.0004    +0.0202   1    38.177
    249       9-16      8.2134   -0.0002    -0.0000   +0.0000   +0.0000   -0.0002    +0.0098   1    46.341
    250       9-17      6.9093   -0.0027    -0.0000   -0.0023   +0.0000   -0.0004    +0.0210   1    37.671
    251       9-18      9.2114   -0.0001    -0.0000   +0.0000   +0.0000   -0.0001    +0.0050   1    52.416
    252       9-19      9.1685   -0.0001    -0.0000   +0.0000   +0.0000   -0.0001    +0.0052   1    52.162
    253       9-20      8.0845   -0.0002    -0.0000   +0.0000   +0.0000   -0.0002    +0.0106   1    45.517
    254       9-21      5.9624   -0.0063    -0.0001   -0.0055   +0.0000   -0.0007    +0.0336   1    31.191
    255       9-23      5.1806   -0.0137    -0.0009   -0.0122   +0.0000   -0.0006    +0.0470   1    25.946
    256       9-24      6.2861   -0.0047    -0.0001   -0.0041   +0.0000   -0.0005    +0.0288   1    33.404
    257       9-25      7.5656   -0.0016    -0.0000   -0.0013   +0.0000   -0.0003    +0.0145   1    42.108
    258       9-26      7.8981   -0.0013    -0.0000   -0.0010   +0.0000   -0.0002    +0.0119   1    44.311
    259       9-27      7.0701   -0.0024    -0.0000   -0.0020   +0.0000   -0.0004    +0.0192   1    38.768
    260       9-28      5.6646   -0.0083    -0.0001   -0.0075   +0.0000   -0.0007    +0.0384   1    29.169
    261       9-31      4.3520   -0.0258    -0.0001   -0.0245   +0.0000   -0.0012    +0.0637   1    20.694
    262       9-32      5.6526   -0.0083    -0.0000   -0.0076   +0.0000   -0.0008    +0.0386   1    29.095
    263       9-33      6.5933   -0.0035    -0.0000   -0.0030   +0.0000   -0.0005    +0.0247   1    35.516
    264       9-34      6.2788   -0.0047    -0.0000   -0.0041   +0.0000   -0.0006    +0.0289   1    33.353
    265       9-35      7.9071   -0.0012    -0.0000   -0.0010   +0.0000   -0.0002    +0.0119   1    44.362
    266       9-36      8.3516   -0.0002    -0.0000   +0.0000   +0.0000   -0.0002    +0.0090   1    47.215
    267       9-37      7.6490   -0.0015    -0.0000   -0.0012   +0.0000   -0.0003    +0.0138   1    42.668
    268       9-38      5.8171   -0.0071    -0.0000   -0.0064   +0.0000   -0.0007    +0.0359   1    30.199
    269       9-39      4.5503   -0.0231    -0.0001   -0.0219   +0.0000   -0.0012    +0.0595   1    21.909
    270       9-43      4.6126   -0.0221    -0.0000   -0.0209   +0.0000   -0.0012    +0.0582   1    22.294
    271       9-44      5.1048   -0.0142    -0.0000   -0.0132   +0.0000   -0.0010    +0.0484   1    25.449
    272       9-45      4.6001   -0.0222    -0.0000   -0.0211   +0.0000   -0.0012    +0.0584   1    22.230
    273      10-12      4.4162   -0.0174    -0.0000   -0.0201   +0.0000   +0.0027    +0.0623   1    21.088
    274      10-13      4.4307   -0.0168    +0.0003   -0.0199   +0.0000   +0.0027    +0.0620   1    21.175
    275      10-14      5.6858   -0.0036    +0.0000   -0.0053   +0.0000   +0.0017    +0.0380   1    29.318
    276      10-15      6.6853   -0.0010    +0.0000   -0.0020   +0.0000   +0.0010    +0.0236   1    36.145
    277      10-16      7.9766   -0.0002    +0.0000   -0.0007   +0.0000   +0.0005    +0.0114   1    44.824
    278      10-17      6.6663   -0.0010    +0.0000   -0.0020   +0.0000   +0.0010    +0.0238   1    36.017
    279      10-18      9.0570   +0.0002    +0.0000   +0.0000   +0.0000   +0.0002    +0.0056   1    51.513
    280      10-19      9.0568   +0.0002    +0.0000   +0.0000   +0.0000   +0.0002    +0.0056   1    51.513
    281      10-20      7.9426   -0.0002    +0.0000   -0.0007   +0.0000   +0.0005    +0.0116   1    44.594
    282      10-21      5.6456   -0.0036    +0.0002   -0.0055   +0.0000   +0.0017    +0.0387   1    29.039
    283      10-23      5.0211   -0.0061    +0.0022   -0.0108   +0.0000   +0.0024    +0.0500   1    24.906
    284      10-24      5.9109   -0.0023    +0.0003   -0.0042   +0.0000   +0.0015    +0.0343   1    30.850
    285      10-25      7.2840   -0.0004    +0.0000   -0.0012   +0.0000   +0.0007    +0.0171   1    40.214
    286      10-26      7.8440   -0.0002    +0.0000   -0.0007   +0.0000   +0.0005    +0.0123   1    43.947
    287      10-27      7.2183   -0.0005    +0.0000   -0.0012   +0.0000   +0.0008    +0.0177   1    39.777
    288      10-28      5.8163   -0.0027    +0.0003   -0.0046   +0.0000   +0.0016    +0.0359   1    30.199
    289      10-32      4.8657   -0.0104    +0.0000   -0.0127   +0.0000   +0.0023    +0.0531   1    23.906
    290      10-33      6.0167   -0.0023    +0.0000   -0.0038   +0.0000   +0.0014    +0.0327   1    31.564
    291      10-34      5.2598   -0.0063    +0.0000   -0.0083   +0.0000   +0.0020    +0.0455   1    26.478
    292      10-35      7.2661   -0.0004    +0.0000   -0.0012   +0.0000   +0.0008    +0.0173   1    40.098
    293      10-36      7.5217   -0.0003    +0.0000   -0.0010   +0.0000   +0.0006    +0.0149   1    41.818
    294      10-37      6.6551   -0.0010    +0.0000   -0.0020   +0.0000   +0.0010    +0.0239   1    35.936
    295      10-38      4.6001   -0.0143    +0.0000   -0.0168   +0.0000   +0.0025    +0.0584   1    22.230
    296      10-42      4.6976   -0.0122    +0.0005   -0.0152   +0.0000   +0.0025    +0.0564   1    22.844
    297      10-43      5.9115   -0.0027    +0.0000   -0.0042   +0.0000   +0.0015    +0.0343   1    30.850
    298      10-44      6.2174   -0.0018    +0.0000   -0.0031   +0.0000   +0.0013    +0.0298   1    32.925
    299      10-45      5.4523   -0.0049    +0.0000   -0.0067   +0.0000   +0.0018    +0.0420   1    27.756
    300      10-46      4.1068   -0.0214    +0.0007   -0.0252   +0.0000   +0.0031    +0.0690   1    19.198
    301      11-23      4.2706   -0.0270    -0.0014   -0.0249   +0.0000   -0.0006    +0.0655   1    20.185
    302      11-24      4.3457   -0.0258    -0.0003   -0.0245   +0.0000   -0.0010    +0.0638   1    20.650
    303      11-25      5.6084   -0.0085    -0.0000   -0.0079   +0.0000   -0.0006    +0.0393   1    28.796
    304      11-26      6.5917   -0.0035    -0.0000   -0.0030   +0.0000   -0.0004    +0.0247   1    35.500
    305      11-27      6.5573   -0.0036    -0.0000   -0.0031   +0.0000   -0.0004    +0.0252   1    35.255
    306      11-28      5.5010   -0.0096    -0.0002   -0.0088   +0.0000   -0.0006    +0.0412   1    28.080
    307      11-30      5.4173   -0.0103    +0.0000   -0.0096   +0.0000   -0.0007    +0.0426   1    27.526
    308      11-31      6.7632   -0.0030    -0.0001   -0.0026   +0.0000   -0.0004    +0.0227   1    36.670
    309      11-32      7.6674   -0.0014    -0.0000   -0.0012   +0.0000   -0.0002    +0.0137   1    42.790
    310      11-33      9.0119   -0.0001    -0.0000   +0.0000   +0.0000   -0.0001    +0.0058   1    51.249
    311      11-34      7.4416   -0.0017    -0.0000   -0.0015   +0.0000   -0.0003    +0.0156   1    41.286
    312      11-35     10.0197   -0.0000    -0.0000   +0.0000   +0.0000   -0.0000    +0.0028   1    56.808
    313      11-36      9.8413   -0.0001    -0.0000   +0.0000   +0.0000   -0.0001    +0.0032   1    55.885
    314      11-37      8.6426   -0.0001    -0.0000   +0.0000   +0.0000   -0.0001    +0.0074   1    49.035
    315      11-38      6.2408   -0.0047    -0.0000   -0.0042   +0.0000   -0.0005    +0.0294   1    33.096
    316      11-39      5.0874   -0.0143    -0.0001   -0.0134   +0.0000   -0.0008    +0.0487   1    25.349
    317      11-41      6.0449   -0.0061    -0.0006   -0.0051   +0.0000   -0.0003    +0.0323   1    31.758
    318      11-42      6.8334   -0.0029    -0.0001   -0.0025   +0.0000   -0.0003    +0.0218   1    37.158
    319      11-43      8.2291   -0.0002    -0.0000   +0.0000   +0.0000   -0.0002    +0.0097   1    46.438
    320      11-44      8.8487   -0.0001    -0.0000   +0.0000   +0.0000   -0.0001    +0.0065   1    50.281
    321      11-45      8.2620   -0.0002    -0.0000   +0.0000   +0.0000   -0.0002    +0.0095   1    46.655
    322      11-46      6.8753   -0.0028    -0.0001   -0.0024   +0.0000   -0.0003    +0.0214   1    37.438
    323      12-22      4.8016   -0.0203    +0.0000   -0.0177   +0.0000   -0.0025    +0.0544   1    23.492
    324      12-23      5.5792   -0.0092    -0.0000   -0.0081   +0.0000   -0.0011    +0.0398   1    28.609
    325      12-24      5.6471   -0.0089    -0.0000   -0.0076   +0.0000   -0.0013    +0.0387   1    29.058
    326      12-25      6.8076   -0.0033    -0.0000   -0.0025   +0.0000   -0.0008    +0.0221   1    36.985
    327      12-26      7.7545   -0.0016    -0.0000   -0.0011   +0.0000   -0.0005    +0.0130   1    43.367
    328      12-27      7.7178   -0.0016    -0.0000   -0.0012   +0.0000   -0.0005    +0.0133   1    43.126
    329      12-28      6.7007   -0.0035    -0.0000   -0.0028   +0.0000   -0.0008    +0.0234   1    36.241
    330      12-29      5.5358   -0.0092    +0.0000   -0.0085   +0.0000   -0.0007    +0.0406   1    28.307
    331      12-30      6.3978   -0.0046    +0.0000   -0.0037   +0.0000   -0.0010    +0.0273   1    34.164
    332      12-31      7.7403   -0.0016    -0.0000   -0.0011   +0.0000   -0.0004    +0.0131   1    43.273
    333      12-32      8.7541   -0.0002    -0.0000   +0.0000   +0.0000   -0.0002    +0.0069   1    49.714
    334      12-33     10.0852   -0.0001    -0.0000   +0.0000   +0.0000   -0.0001    +0.0026   1    57.141
    335      12-34      8.6200   -0.0003    -0.0000   +0.0000   +0.0000   -0.0003    +0.0075   1    48.890
    336      12-35     11.1670   -0.0000    -0.0000   +0.0000   +0.0000   -0.0000    +0.0011   1    62.139
    337      12-36     11.0554   -0.0000    -0.0000   +0.0000   +0.0000   -0.0000    +0.0012   1    61.671
    338      12-37      9.8700   -0.0001    -0.0000   +0.0000   +0.0000   -0.0001    +0.0031   1    56.035
    339      12-38      7.4338   -0.0020    -0.0000   -0.0015   +0.0000   -0.0005    +0.0157   1    41.230
    340      12-39      6.2070   -0.0054    -0.0000   -0.0044   +0.0000   -0.0010    +0.0299   1    32.856
    341      12-40      4.5957   -0.0239    +0.0000   -0.0212   +0.0000   -0.0027    +0.0586   1    22.187
    342      12-41      6.0051   -0.0062    -0.0000   -0.0053   +0.0000   -0.0009    +0.0329   1    31.475
    343      12-42      6.7629   -0.0034    -0.0000   -0.0026   +0.0000   -0.0008    +0.0227   1    36.670
    344      12-43      8.1102   -0.0004    -0.0000   +0.0000   +0.0000   -0.0004    +0.0105   1    45.678
    345      12-44      8.7087   -0.0002    -0.0000   +0.0000   +0.0000   -0.0002    +0.0071   1    49.431
    346      12-45      8.1413   -0.0004    -0.0000   +0.0000   +0.0000   -0.0004    +0.0102   1    45.889
    347      12-46      6.8039   -0.0033    -0.0000   -0.0025   +0.0000   -0.0007    +0.0222   1    36.954
    348      13-22      5.7434   -0.0086    -0.0000   -0.0069   +0.0000   -0.0017    +0.0371   1    29.705
    349      13-23      6.7306   -0.0033    +0.0000   -0.0027   +0.0000   -0.0006    +0.0230   1    36.448
    350      13-24      6.8998   -0.0030    +0.0000   -0.0023   +0.0000   -0.0007    +0.0211   1    37.609
    351      13-25      8.1258   -0.0004    +0.0000   +0.0000   +0.0000   -0.0004    +0.0104   1    45.778
    352      13-26      9.0696   -0.0002    +0.0000   +0.0000   +0.0000   -0.0002    +0.0055   1    51.594
    353      13-27      8.9555   -0.0002    +0.0000   +0.0000   +0.0000   -0.0002    +0.0060   1    50.920
    354      13-28      7.8448   -0.0015    +0.0000   -0.0011   +0.0000   -0.0004    +0.0123   1    43.960
    355      13-29      5.3145   -0.0114    -0.0001   -0.0107   +0.0000   -0.0007    +0.0445   1    26.830
    356      13-30      6.3274   -0.0049    -0.0000   -0.0039   +0.0000   -0.0010    +0.0282   1    33.692
    357      13-31      7.6437   -0.0017    +0.0000   -0.0012   +0.0000   -0.0005    +0.0139   1    42.628
    358      13-32      8.7194   -0.0002    +0.0000   +0.0000   +0.0000   -0.0002    +0.0070   1    49.497
    359      13-33     10.0292   -0.0001    +0.0000   +0.0000   +0.0000   -0.0001    +0.0027   1    56.856
    360      13-34      8.6710   -0.0002    +0.0000   +0.0000   +0.0000   -0.0002    +0.0073   1    49.201
    361      13-35     11.1622   -0.0000    +0.0000   +0.0000   +0.0000   -0.0000    +0.0011   1    62.121
    362      13-36     11.1168   -0.0000    +0.0000   +0.0000   +0.0000   -0.0000    +0.0011   1    61.927
    363      13-37      9.9631   -0.0001    +0.0000   +0.0000   +0.0000   -0.0001    +0.0029   1    56.519
    364      13-38      7.5339   -0.0019    +0.0000   -0.0014   +0.0000   -0.0005    +0.0148   1    41.901
    365      13-39      6.2572   -0.0051    +0.0000   -0.0042   +0.0000   -0.0010    +0.0292   1    33.199
    366      13-40      4.4114   -0.0268    -0.0001   -0.0239   +0.0000   -0.0029    +0.0625   1    21.044
    367      13-41      5.6764   -0.0084    +0.0000   -0.0074   +0.0000   -0.0010    +0.0381   1    29.262
    368      13-42      6.5984   -0.0038    +0.0000   -0.0030   +0.0000   -0.0008    +0.0247   1    35.549
    369      13-43      7.8483   -0.0015    +0.0000   -0.0011   +0.0000   -0.0004    +0.0123   1    43.986
    370      13-44      8.2489   -0.0003    +0.0000   +0.0000   +0.0000   -0.0003    +0.0096   1    46.571
    371      13-45      7.5375   -0.0018    +0.0000   -0.0013   +0.0000   -0.0005    +0.0148   1    41.928
    372      13-46      6.2303   -0.0052    +0.0000   -0.0043   +0.0000   -0.0010    +0.0296   1    33.028
    373      14-22      7.0714   -0.0029    -0.0000   -0.0020   +0.0000   -0.0009    +0.0192   1    38.783
    374      14-23      7.9798   -0.0013    +0.0000   -0.0009   +0.0000   -0.0003    +0.0113   1    44.837
    375      14-24      8.0999   -0.0004    +0.0000   +0.0000   +0.0000   -0.0004    +0.0105   1    45.616
    376      14-25      9.2517   -0.0002    +0.0000   +0.0000   +0.0000   -0.0002    +0.0049   1    52.649
    377      14-26     10.1874   -0.0001    +0.0000   +0.0000   +0.0000   -0.0001    +0.0024   1    57.660
    378      14-27     10.1043   -0.0001    +0.0000   +0.0000   +0.0000   -0.0001    +0.0026   1    57.243
    379      14-28      9.0462   -0.0002    +0.0000   +0.0000   +0.0000   -0.0002    +0.0056   1    51.452
    380      14-29      6.5145   -0.0037    -0.0000   -0.0033   +0.0000   -0.0004    +0.0257   1    34.977
    381      14-30      7.6076   -0.0018    -0.0000   -0.0013   +0.0000   -0.0005    +0.0142   1    42.396
    382      14-31      8.8887   -0.0002    +0.0000   +0.0000   +0.0000   -0.0002    +0.0063   1    50.524
    383      14-32      9.9947   -0.0001    +0.0000   +0.0000   +0.0000   -0.0001    +0.0028   1    56.680
    384      14-33     11.2809   -0.0000    +0.0000   +0.0000   +0.0000   -0.0000    +0.0010   1    62.610
    385      14-34      9.9792   -0.0001    +0.0000   +0.0000   +0.0000   -0.0001    +0.0028   1    56.600
    386      14-35     12.4370   -0.0000    +0.0000   +0.0000   +0.0000   -0.0000    +0.0003   1    66.788
    387      14-36     12.4172   -0.0000    +0.0000   +0.0000   +0.0000   -0.0000    +0.0003   1    66.728
    388      14-37     11.2722   -0.0000    +0.0000   +0.0000   +0.0000   -0.0000    +0.0010   1    62.570
    389      14-38      8.8538   -0.0002    +0.0000   +0.0000   +0.0000   -0.0002    +0.0064   1    50.313
    390      14-39      7.5834   -0.0018    +0.0000   -0.0013   +0.0000   -0.0005    +0.0144   1    42.232
    391      14-40      5.2528   -0.0135    -0.0000   -0.0114   +0.0000   -0.0021    +0.0456   1    26.419
    392      14-41      6.3165   -0.0047    +0.0000   -0.0039   +0.0000   -0.0008    +0.0284   1    33.608
    393      14-42      7.1459   -0.0025    +0.0000   -0.0019   +0.0000   -0.0006    +0.0184   1    39.291
    394      14-43      8.2868   -0.0003    +0.0000   +0.0000   +0.0000   -0.0003    +0.0094   1    46.811
    395      14-44      8.6492   -0.0003    +0.0000   +0.0000   +0.0000   -0.0003    +0.0074   1    49.068
    396      14-45      7.9831   -0.0013    +0.0000   -0.0009   +0.0000   -0.0004    +0.0113   1    44.862
    397      14-46      6.7968   -0.0033    +0.0000   -0.0025   +0.0000   -0.0007    +0.0223   1    36.907
    398      15-22      7.5358   -0.0020    -0.0000   -0.0013   +0.0000   -0.0007    +0.0148   1    41.915
    399      15-23      8.2178   -0.0003    +0.0000   +0.0000   +0.0000   -0.0003    +0.0098   1    46.378
    400      15-24      8.2195   -0.0003    +0.0000   +0.0000   +0.0000   -0.0003    +0.0098   1    46.378
    401      15-25      9.2251   -0.0002    +0.0000   +0.0000   +0.0000   -0.0002    +0.0050   1    52.494
    402      15-26     10.1367   -0.0001    +0.0000   +0.0000   +0.0000   -0.0001    +0.0025   1    57.406
    403      15-27     10.1447   -0.0001    +0.0000   +0.0000   +0.0000   -0.0001    +0.0025   1    57.445
    404      15-28      9.2240   -0.0002    +0.0000   +0.0000   +0.0000   -0.0002    +0.0050   1    52.485
    405      15-29      7.6711   -0.0014    -0.0000   -0.0012   +0.0000   -0.0002    +0.0137   1    42.817
    406      15-30      8.7408   -0.0002    -0.0000   +0.0000   +0.0000   -0.0002    +0.0069   1    49.627
    407      15-31     10.0420   -0.0001    +0.0000   +0.0000   +0.0000   -0.0001    +0.0027   1    56.920
    408      15-32     11.1408   -0.0000    +0.0000   +0.0000   +0.0000   -0.0000    +0.0011   1    62.028
    409      15-33     12.4412   -0.0000    +0.0000   +0.0000   +0.0000   -0.0000    +0.0003   1    66.804
    410      15-34     11.0841   -0.0000    +0.0000   +0.0000   +0.0000   -0.0000    +0.0012   1    61.791
    411      15-35     13.5859   -0.0000    +0.0000   +0.0000   +0.0000   -0.0000    +0.0001   1    69.977
    412      15-36     13.5331   -0.0000    +0.0000   +0.0000   +0.0000   -0.0000    +0.0001   1    69.849
    413      15-37     12.3593   -0.0000    +0.0000   +0.0000   +0.0000   -0.0000    +0.0004   1    66.542
    414      15-38      9.9148   -0.0001    +0.0000   +0.0000   +0.0000   -0.0001    +0.0030   1    56.266
    415      15-39      8.6623   -0.0002    +0.0000   +0.0000   +0.0000   -0.0002    +0.0073   1    49.156
    416      15-40      6.0983   -0.0063    -0.0000   -0.0048   +0.0000   -0.0015    +0.0315   1    32.127
    417      15-41      7.1566   -0.0024    +0.0000   -0.0019   +0.0000   -0.0005    +0.0183   1    39.350
    418      15-42      7.7817   -0.0015    +0.0000   -0.0011   +0.0000   -0.0004    +0.0128   1    43.539
    419      15-43      8.9271   -0.0002    +0.0000   +0.0000   +0.0000   -0.0002    +0.0061   1    50.754
    420      15-44      9.4428   -0.0001    +0.0000   +0.0000   +0.0000   -0.0001    +0.0042   1    53.725
    421      15-45      8.9414   -0.0002    +0.0000   +0.0000   +0.0000   -0.0002    +0.0061   1    50.837
    422      15-46      7.8033   -0.0015    +0.0000   -0.0011   +0.0000   -0.0004    +0.0126   1    43.684
    423      16-22      8.9297   -0.0003    -0.0000   +0.0000   +0.0000   -0.0003    +0.0061   1    50.765
    424      16-23      9.5774   -0.0001    +0.0000   +0.0000   +0.0000   -0.0001    +0.0038   1    54.469
    425      16-24      9.5493   -0.0001    +0.0000   +0.0000   +0.0000   -0.0001    +0.0039   1    54.317
    426      16-25     10.4969   -0.0001    +0.0000   +0.0000   +0.0000   -0.0001    +0.0019   1    59.156
    427      16-26     11.3963   -0.0000    +0.0000   +0.0000   +0.0000   -0.0000    +0.0009   1    63.076
    428      16-27     11.4281   -0.0000    +0.0000   +0.0000   +0.0000   -0.0000    +0.0009   1    63.201
    429      16-28     10.5486   -0.0001    +0.0000   +0.0000   +0.0000   -0.0001    +0.0018   1    59.400
    430      16-29      8.9067   -0.0001    -0.0000   +0.0000   +0.0000   -0.0001    +0.0062   1    50.629
    431      16-30     10.0220   -0.0001    -0.0000   +0.0000   +0.0000   -0.0001    +0.0027   1    56.824
    432      16-31     11.3023   -0.0000    +0.0000   +0.0000   +0.0000   -0.0000    +0.0010   1    62.694
    433      16-32     12.4190   -0.0000    +0.0000   +0.0000   +0.0000   -0.0000    +0.0003   1    66.732
    434      16-33     13.7050   -0.0000    +0.0000   +0.0000   +0.0000   -0.0000    +0.0001   1    70.258
    435      16-34     12.3819   -0.0000    +0.0000   +0.0000   +0.0000   -0.0000    +0.0004   1    66.611
    436      16-35     14.8647   -0.0000    +0.0000   +0.0000   +0.0000   -0.0000    +0.0000   1    72.585
    437      16-36     14.8277   -0.0000    +0.0000   +0.0000   +0.0000   -0.0000    +0.0000   1    72.522
    438      16-37     13.6579   -0.0000    +0.0000   +0.0000   +0.0000   -0.0000    +0.0001   1    70.148
    439      16-38     11.2191   -0.0000    +0.0000   +0.0000   +0.0000   -0.0000    +0.0010   1    62.353
    440      16-39      9.9698   -0.0001    +0.0000   +0.0000   +0.0000   -0.0001    +0.0029   1    56.551
    441      16-40      7.1951   -0.0026    -0.0000   -0.0018   +0.0000   -0.0008    +0.0180   1    39.616
    442      16-41      8.0961   -0.0003    +0.0000   +0.0000   +0.0000   -0.0003    +0.0105   1    45.592
    443      16-42      8.6505   -0.0002    +0.0000   +0.0000   +0.0000   -0.0002    +0.0074   1    49.079
    444      16-43      9.6805   -0.0001    +0.0000   +0.0000   +0.0000   -0.0001    +0.0036   1    55.024
    445      16-44     10.1474   -0.0001    +0.0000   +0.0000   +0.0000   -0.0001    +0.0025   1    57.452
    446      16-45      9.6853   -0.0001    +0.0000   +0.0000   +0.0000   -0.0001    +0.0035   1    55.050
    447      16-46      8.6615   -0.0002    +0.0000   +0.0000   +0.0000   -0.0002    +0.0073   1    49.145
    448      17-22      6.8354   -0.0035    -0.0000   -0.0024   +0.0000   -0.0010    +0.0218   1    37.173
    449      17-23      7.2949   -0.0021    +0.0000   -0.0016   +0.0000   -0.0005    +0.0170   1    40.287
    450      17-24      7.1945   -0.0024    +0.0000   -0.0018   +0.0000   -0.0006    +0.0180   1    39.616
    451      17-25      8.0825   -0.0004    +0.0000   +0.0000   +0.0000   -0.0004    +0.0106   1    45.504
    452      17-26      8.9704   -0.0002    +0.0000   +0.0000   +0.0000   -0.0002    +0.0059   1    51.003
    453      17-27      9.0587   -0.0002    +0.0000   +0.0000   +0.0000   -0.0002    +0.0056   1    51.523
    454      17-28      8.2600   -0.0003    +0.0000   +0.0000   +0.0000   -0.0003    +0.0095   1    46.643
    455      17-29      7.8183   -0.0013    -0.0000   -0.0011   +0.0000   -0.0002    +0.0125   1    43.789
    456      17-30      8.7854   -0.0002    -0.0000   +0.0000   +0.0000   -0.0002    +0.0067   1    49.897
    457      17-31     10.1074   -0.0001    +0.0000   +0.0000   +0.0000   -0.0001    +0.0026   1    57.258
    458      17-32     11.1608   -0.0000    +0.0000   +0.0000   +0.0000   -0.0000    +0.0011   1    62.116
    459      17-33     12.4777   -0.0000    +0.0000   +0.0000   +0.0000   -0.0000    +0.0003   1    66.919
    460      17-34     11.0396   -0.0000    +0.0000   +0.0000   +0.0000   -0.0000    +0.0012   1    61.598
    461      17-35     13.5821   -0.0000    +0.0000   +0.0000   +0.0000   -0.0000    +0.0001   1    69.968
    462      17-36     13.4771   -0.0000    +0.0000   +0.0000   +0.0000   -0.0000    +0.0001   1    69.713
    463      17-37     12.2804   -0.0000    +0.0000   +0.0000   +0.0000   -0.0000    +0.0004   1    66.282
    464      17-38      9.8364   -0.0001    +0.0000   +0.0000   +0.0000   -0.0001    +0.0032   1    55.860
    465      17-39      8.6227   -0.0003    +0.0000   +0.0000   +0.0000   -0.0003    +0.0075   1    48.912
    466      17-40      6.2189   -0.0057    -0.0000   -0.0043   +0.0000   -0.0014    +0.0298   1    32.942
    467      17-41      7.4043   -0.0019    +0.0000   -0.0015   +0.0000   -0.0004    +0.0160   1    41.032
    468      17-42      7.9033   -0.0014    +0.0000   -0.0010   +0.0000   -0.0004    +0.0119   1    44.336
    469      17-43      9.1394   -0.0002    +0.0000   +0.0000   +0.0000   -0.0002    +0.0053   1    51.994
    470      17-44      9.8299   -0.0001    +0.0000   +0.0000   +0.0000   -0.0001    +0.0032   1    55.827
    471      17-45      9.4412   -0.0001    +0.0000   +0.0000   +0.0000   -0.0001    +0.0042   1    53.716
    472      17-46      8.2549   -0.0003    +0.0000   +0.0000   +0.0000   -0.0003    +0.0095   1    46.607
    473      18-22      9.6169   -0.0002    -0.0000   +0.0000   +0.0000   -0.0002    +0.0037   1    54.682
    474      18-23     10.0759   -0.0001    +0.0000   +0.0000   +0.0000   -0.0001    +0.0026   1    57.094
    475      18-24      9.9503   -0.0001    +0.0000   +0.0000   +0.0000   -0.0001    +0.0029   1    56.454
    476      18-25     10.7490   -0.0001    +0.0000   +0.0000   +0.0000   -0.0001    +0.0015   1    60.325
    477      18-26     11.6079   -0.0000    +0.0000   +0.0000   +0.0000   -0.0000    +0.0007   1    63.896
    478      18-27     11.7213   -0.0000    +0.0000   +0.0000   +0.0000   -0.0000    +0.0007   1    64.325
    479      18-28     10.9779   -0.0000    +0.0000   +0.0000   +0.0000   -0.0000    +0.0013   1    61.336
    480      18-29     10.0875   -0.0000    -0.0000   +0.0000   +0.0000   -0.0000    +0.0026   1    57.157
    481      18-30     11.1769   -0.0000    -0.0000   +0.0000   +0.0000   -0.0000    +0.0011   1    62.180
    482      18-31     12.4724   -0.0000    +0.0000   +0.0000   +0.0000   -0.0000    +0.0003   1    66.899
    483      18-32     13.5789   -0.0000    +0.0000   +0.0000   +0.0000   -0.0000    +0.0001   1    69.960
    484      18-33     14.8764   -0.0000    +0.0000   +0.0000   +0.0000   -0.0000    +0.0000   1    72.605
    485      18-34     13.5068   -0.0000    +0.0000   +0.0000   +0.0000   -0.0000    +0.0001   1    69.784
    486      18-35     16.0237   -0.0000    +0.0000   +0.0000   +0.0000   -0.0000    +0.0000   1    74.282
    487      18-36     15.9574   -0.0000    +0.0000   +0.0000   +0.0000   -0.0000    +0.0000   1    74.199
    488      18-37     14.7656   -0.0000    +0.0000   +0.0000   +0.0000   -0.0000    +0.0000   1    72.413
    489      18-38     12.3128   -0.0000    +0.0000   +0.0000   +0.0000   -0.0000    +0.0004   1    66.390
    490      18-39     11.0816   -0.0000    +0.0000   +0.0000   +0.0000   -0.0000    +0.0012   1    61.779
    491      18-40      8.2176   -0.0005    -0.0000   +0.0000   +0.0000   -0.0005    +0.0098   1    46.365
    492      18-41      9.1164   -0.0001    +0.0000   +0.0000   +0.0000   -0.0001    +0.0054   1    51.864
    493      18-42      9.5201   -0.0001    +0.0000   +0.0000   +0.0000   -0.0001    +0.0040   1    54.154
    494      18-43     10.5413   -0.0001    +0.0000   +0.0000   +0.0000   -0.0001    +0.0018   1    59.365
    495      18-44     11.1229   -0.0000    +0.0000   +0.0000   +0.0000   -0.0000    +0.0011   1    61.957
    496      18-45     10.7864   -0.0001    +0.0000   +0.0000   +0.0000   -0.0001    +0.0015   1    60.495
    497      18-46      9.7961   -0.0001    +0.0000   +0.0000   +0.0000   -0.0001    +0.0033   1    55.642
    498      19-22      9.1045   -0.0003    -0.0000   +0.0000   +0.0000   -0.0003    +0.0054   1    51.795
    499      19-23      9.3684   -0.0001    +0.0000   +0.0000   +0.0000   -0.0001    +0.0045   1    53.306
    500      19-24      9.1555   -0.0002    +0.0000   +0.0000   +0.0000   -0.0002    +0.0052   1    52.093
    501      19-25      9.8216   -0.0001    +0.0000   +0.0000   +0.0000   -0.0001    +0.0032   1    55.777
    502      19-26     10.6391   -0.0001    +0.0000   +0.0000   +0.0000   -0.0001    +0.0017   1    59.825
    503      19-27     10.8264   -0.0001    +0.0000   +0.0000   +0.0000   -0.0001    +0.0014   1    60.669
    504      19-28     10.2105   -0.0001    +0.0000   +0.0000   +0.0000   -0.0001    +0.0024   1    57.774
    505      19-29     10.2112   -0.0000    -0.0000   +0.0000   +0.0000   -0.0000    +0.0024   1    57.774
    506      19-30     11.2256   -0.0000    -0.0000   +0.0000   +0.0000   -0.0000    +0.0010   1    62.382
    507      19-31     12.5375   -0.0000    +0.0000   +0.0000   +0.0000   -0.0000    +0.0003   1    67.106
    508      19-32     13.6091   -0.0000    +0.0000   +0.0000   +0.0000   -0.0000    +0.0001   1    70.032
    509      19-33     14.9196   -0.0000    +0.0000   +0.0000   +0.0000   -0.0000    +0.0000   1    72.679
    510      19-34     13.4866   -0.0000    +0.0000   +0.0000   +0.0000   -0.0000    +0.0001   1    69.735
    511      19-35     16.0344   -0.0000    +0.0000   +0.0000   +0.0000   -0.0000    +0.0000   1    74.295
    512      19-36     15.9259   -0.0000    +0.0000   +0.0000   +0.0000   -0.0000    +0.0000   1    74.159
    513      19-37     14.7168   -0.0000    +0.0000   +0.0000   +0.0000   -0.0000    +0.0000   1    72.327
    514      19-38     12.2676   -0.0000    +0.0000   +0.0000   +0.0000   -0.0000    +0.0004   1    66.240
    515      19-39     11.0676   -0.0000    +0.0000   +0.0000   +0.0000   -0.0000    +0.0012   1    61.719
    516      19-40      8.3154   -0.0004    -0.0000   +0.0000   +0.0000   -0.0004    +0.0092   1    46.990
    517      19-41      9.3153   -0.0001    +0.0000   +0.0000   +0.0000   -0.0001    +0.0047   1    53.004
    518      19-42      9.6226   -0.0001    +0.0000   +0.0000   +0.0000   -0.0001    +0.0037   1    54.718
    519      19-43     10.7211   -0.0001    +0.0000   +0.0000   +0.0000   -0.0001    +0.0016   1    60.200
    520      19-44     11.4500   -0.0000    +0.0000   +0.0000   +0.0000   -0.0000    +0.0008   1    63.287
    521      19-45     11.2011   -0.0000    +0.0000   +0.0000   +0.0000   -0.0000    +0.0010   1    62.278
    522      19-46     10.1593   -0.0001    +0.0000   +0.0000   +0.0000   -0.0001    +0.0025   1    57.514
    523      20-22      7.7349   -0.0018    -0.0000   -0.0011   +0.0000   -0.0006    +0.0132   1    43.233
    524      20-23      7.9636   -0.0013    +0.0000   -0.0010   +0.0000   -0.0003    +0.0115   1    44.735
    525      20-24      7.7463   -0.0016    +0.0000   -0.0011   +0.0000   -0.0004    +0.0131   1    43.313
    526      20-25      8.4351   -0.0003    +0.0000   +0.0000   +0.0000   -0.0003    +0.0085   1    47.742
    527      20-26      9.2645   -0.0002    +0.0000   +0.0000   +0.0000   -0.0002    +0.0048   1    52.717
    528      20-27      9.4512   -0.0001    +0.0000   +0.0000   +0.0000   -0.0001    +0.0042   1    53.771
    529      20-28      8.8262   -0.0002    +0.0000   +0.0000   +0.0000   -0.0002    +0.0066   1    50.143
    530      20-29      9.1543   -0.0001    -0.0000   +0.0000   +0.0000   -0.0001    +0.0052   1    52.083
    531      20-30     10.0981   -0.0001    -0.0000   +0.0000   +0.0000   -0.0001    +0.0026   1    57.211
    532      20-31     11.4150   -0.0000    +0.0000   +0.0000   +0.0000   -0.0000    +0.0009   1    63.147
    533      20-32     12.4535   -0.0000    +0.0000   +0.0000   +0.0000   -0.0000    +0.0003   1    66.840
    534      20-33     13.7684   -0.0000    +0.0000   +0.0000   +0.0000   -0.0000    +0.0001   1    70.405
    535      20-34     12.3044   -0.0000    +0.0000   +0.0000   +0.0000   -0.0000    +0.0004   1    66.361
    536      20-35     14.8566   -0.0000    +0.0000   +0.0000   +0.0000   -0.0000    +0.0000   1    72.572
    537      20-36     14.7271   -0.0000    +0.0000   +0.0000   +0.0000   -0.0000    +0.0000   1    72.346
    538      20-37     13.5184   -0.0000    +0.0000   +0.0000   +0.0000   -0.0000    +0.0001   1    69.812
    539      20-38     11.0848   -0.0000    +0.0000   +0.0000   +0.0000   -0.0000    +0.0012   1    61.791
    540      20-39      9.9040   -0.0001    +0.0000   +0.0000   +0.0000   -0.0001    +0.0030   1    56.209
    541      20-40      7.3891   -0.0023    -0.0000   -0.0015   +0.0000   -0.0007    +0.0161   1    40.932
    542      20-41      8.5157   -0.0002    +0.0000   +0.0000   +0.0000   -0.0002    +0.0081   1    48.248
    543      20-42      8.8539   -0.0002    +0.0000   +0.0000   +0.0000   -0.0002    +0.0064   1    50.313
    544      20-43     10.0516   -0.0001    +0.0000   +0.0000   +0.0000   -0.0001    +0.0027   1    56.975
    545      20-44     10.8374   -0.0000    +0.0000   +0.0000   +0.0000   -0.0000    +0.0014   1    60.720
    546      20-45     10.5714   -0.0001    +0.0000   +0.0000   +0.0000   -0.0001    +0.0018   1    59.511
    547      20-46      9.4441   -0.0001    +0.0000   +0.0000   +0.0000   -0.0001    +0.0042   1    53.734
    548      21-22      5.4661   -0.0111    -0.0000   -0.0091   +0.0000   -0.0019    +0.0418   1    27.851
    549      21-23      5.9188   -0.0067    +0.0000   -0.0058   +0.0000   -0.0009    +0.0342   1    30.904
    550      21-24      5.8267   -0.0075    +0.0000   -0.0063   +0.0000   -0.0012    +0.0357   1    30.272
    551      21-25      6.7801   -0.0033    +0.0000   -0.0026   +0.0000   -0.0008    +0.0224   1    36.797
    552      21-26      7.6922   -0.0017    +0.0000   -0.0012   +0.0000   -0.0005    +0.0135   1    42.952
    553      21-27      7.7712   -0.0016    +0.0000   -0.0011   +0.0000   -0.0004    +0.0129   1    43.473
    554      21-28      6.9388   -0.0029    +0.0000   -0.0022   +0.0000   -0.0007    +0.0206   1    37.871
    555      21-29      6.8596   -0.0028    -0.0000   -0.0024   +0.0000   -0.0003    +0.0215   1    37.329
    556      21-30      7.7120   -0.0016    -0.0000   -0.0012   +0.0000   -0.0005    +0.0133   1    43.086
    557      21-31      9.0396   -0.0002    +0.0000   +0.0000   +0.0000   -0.0002    +0.0057   1    51.412
    558      21-32     10.0419   -0.0001    +0.0000   +0.0000   +0.0000   -0.0001    +0.0027   1    56.920
    559      21-33     11.3653   -0.0000    +0.0000   +0.0000   +0.0000   -0.0000    +0.0009   1    62.950
    560      21-34      9.8803   -0.0001    +0.0000   +0.0000   +0.0000   -0.0001    +0.0031   1    56.085
    561      21-35     12.4316   -0.0000    +0.0000   +0.0000   +0.0000   -0.0000    +0.0003   1    66.772
    562      21-36     12.2957   -0.0000    +0.0000   +0.0000   +0.0000   -0.0000    +0.0004   1    66.332
    563      21-37     11.0978   -0.0000    +0.0000   +0.0000   +0.0000   -0.0000    +0.0011   1    61.850
    564      21-38      8.6754   -0.0002    +0.0000   +0.0000   +0.0000   -0.0002    +0.0073   1    49.234
    565      21-39      7.4919   -0.0019    +0.0000   -0.0014   +0.0000   -0.0005    +0.0152   1    41.623
    566      21-40      5.5379   -0.0104    -0.0000   -0.0085   +0.0000   -0.0019    +0.0405   1    28.326
    567      21-41      6.8753   -0.0029    +0.0000   -0.0024   +0.0000   -0.0006    +0.0214   1    37.438
    568      21-42      7.4210   -0.0020    +0.0000   -0.0015   +0.0000   -0.0005    +0.0158   1    41.145
    569      21-43      8.7512   -0.0002    +0.0000   +0.0000   +0.0000   -0.0002    +0.0069   1    49.692
    570      21-44      9.4857   -0.0001    +0.0000   +0.0000   +0.0000   -0.0001    +0.0041   1    53.964
    571      21-45      9.0733   -0.0002    +0.0000   +0.0000   +0.0000   -0.0002    +0.0055   1    51.614
    572      21-46      7.8018   -0.0015    +0.0000   -0.0011   +0.0000   -0.0004    +0.0126   1    43.671
    573      22-30      4.5902   -0.0240    +0.0000   -0.0212   +0.0000   -0.0027    +0.0587   1    22.166
    574      22-31      5.5160   -0.0106    -0.0000   -0.0087   +0.0000   -0.0019    +0.0409   1    28.174
    575      22-32      6.1972   -0.0058    -0.0000   -0.0044   +0.0000   -0.0014    +0.0301   1    32.787
    576      22-33      7.3205   -0.0024    -0.0000   -0.0016   +0.0000   -0.0008    +0.0167   1    40.460
    577      22-34      6.0830   -0.0064    -0.0000   -0.0049   +0.0000   -0.0015    +0.0317   1    32.022
    578      22-35      8.2068   -0.0005    -0.0000   +0.0000   +0.0000   -0.0005    +0.0098   1    46.305
    579      22-36      8.1123   -0.0005    -0.0000   +0.0000   +0.0000   -0.0005    +0.0104   1    45.691
    580      22-37      7.1368   -0.0027    -0.0000   -0.0019   +0.0000   -0.0009    +0.0185   1    39.216
    581      22-38      5.2568   -0.0134    -0.0000   -0.0113   +0.0000   -0.0021    +0.0455   1    26.459
    582      22-39      4.4244   -0.0266    -0.0001   -0.0237   +0.0000   -0.0029    +0.0622   1    21.131
    583      22-41      6.2077   -0.0058    -0.0002   -0.0044   +0.0000   -0.0012    +0.0299   1    32.873
    584      22-42      6.7081   -0.0038    -0.0000   -0.0027   +0.0000   -0.0011    +0.0233   1    36.289
    585      22-43      8.0228   -0.0005    -0.0000   +0.0000   +0.0000   -0.0005    +0.0110   1    45.115
    586      22-44      8.7777   -0.0003    -0.0000   +0.0000   +0.0000   -0.0003    +0.0068   1    49.854
    587      22-45      8.4095   -0.0004    -0.0000   +0.0000   +0.0000   -0.0004    +0.0086   1    47.591
    588      22-46      7.1660   -0.0027    -0.0000   -0.0018   +0.0000   -0.0008    +0.0182   1    39.424
    589      23-29      6.0721   -0.0059    -0.0006   -0.0050   +0.0000   -0.0003    +0.0319   1    31.934
    590      23-30      6.0167   -0.0062    -0.0000   -0.0053   +0.0000   -0.0009    +0.0327   1    31.564
    591      23-31      6.8606   -0.0030    +0.0000   -0.0024   +0.0000   -0.0006    +0.0215   1    37.345
    592      23-32      7.3955   -0.0020    +0.0000   -0.0015   +0.0000   -0.0004    +0.0160   1    40.975
    593      23-33      8.4453   -0.0002    +0.0000   +0.0000   +0.0000   -0.0002    +0.0084   1    47.811
    594      23-34      7.1693   -0.0023    +0.0000   -0.0018   +0.0000   -0.0005    +0.0182   1    39.439
    595      23-35      9.1980   -0.0001    +0.0000   +0.0000   +0.0000   -0.0001    +0.0051   1    52.338
    596      23-36      9.0108   -0.0002    +0.0000   +0.0000   +0.0000   -0.0002    +0.0058   1    51.249
    597      23-37      8.0565   -0.0003    +0.0000   +0.0000   +0.0000   -0.0003    +0.0108   1    45.342
    598      23-38      6.3626   -0.0045    +0.0000   -0.0038   +0.0000   -0.0008    +0.0277   1    33.929
    599      23-39      5.7250   -0.0080    +0.0000   -0.0070   +0.0000   -0.0010    +0.0374   1    29.577
    600      23-40      6.2076   -0.0058    -0.0002   -0.0044   +0.0000   -0.0012    +0.0299   1    32.873
    601      23-41      7.4462   -0.0017    +0.0001   -0.0015   +0.0000   -0.0003    +0.0156   1    41.314
    602      23-42      7.7594   -0.0015    +0.0000   -0.0011   +0.0000   -0.0003    +0.0130   1    43.393
    603      23-43      9.0576   -0.0002    +0.0000   +0.0000   +0.0000   -0.0002    +0.0056   1    51.523
    604      23-44      9.9435   -0.0001    +0.0000   +0.0000   +0.0000   -0.0001    +0.0029   1    56.413
    605      23-45      9.7098   -0.0001    +0.0000   +0.0000   +0.0000   -0.0001    +0.0035   1    55.180
    606      23-46      8.5112   -0.0002    +0.0000   +0.0000   +0.0000   -0.0002    +0.0081   1    48.225
    607      24-29      6.9205   -0.0027    -0.0001   -0.0023   +0.0000   -0.0003    +0.0208   1    37.748
    608      24-30      6.7732   -0.0033    -0.0000   -0.0026   +0.0000   -0.0008    +0.0225   1    36.749
    609      24-31      7.7241   -0.0016    +0.0000   -0.0012   +0.0000   -0.0004    +0.0132   1    43.167
    610      24-32      8.1449   -0.0003    +0.0000   +0.0000   +0.0000   -0.0003    +0.0102   1    45.901
    611      24-33      9.2689   -0.0002    +0.0000   +0.0000   +0.0000   -0.0002    +0.0048   1    52.746
    612      24-34      7.6900   -0.0016    +0.0000   -0.0012   +0.0000   -0.0005    +0.0135   1    42.939
    613      24-35      9.9121   -0.0001    +0.0000   +0.0000   +0.0000   -0.0001    +0.0030   1    56.250
    614      24-36      9.5381   -0.0001    +0.0000   +0.0000   +0.0000   -0.0001    +0.0040   1    54.254
    615      24-37      8.4698   -0.0003    +0.0000   +0.0000   +0.0000   -0.0003    +0.0083   1    47.961
    616      24-38      6.7301   -0.0035    +0.0000   -0.0027   +0.0000   -0.0008    +0.0230   1    36.448
    617      24-39      6.2105   -0.0053    +0.0000   -0.0044   +0.0000   -0.0010    +0.0299   1    32.890
    618      24-40      7.2093   -0.0026    -0.0000   -0.0018   +0.0000   -0.0008    +0.0178   1    39.719
    619      24-41      8.5495   -0.0002    +0.0000   +0.0000   +0.0000   -0.0002    +0.0079   1    48.463
    620      24-42      8.9374   -0.0002    +0.0000   +0.0000   +0.0000   -0.0002    +0.0061   1    50.816
    621      24-43     10.2778   -0.0001    +0.0000   +0.0000   +0.0000   -0.0001    +0.0022   1    58.105
    622      24-44     11.1501   -0.0000    +0.0000   +0.0000   +0.0000   -0.0000    +0.0011   1    62.069
    623      24-45     10.8500   -0.0000    +0.0000   +0.0000   +0.0000   -0.0000    +0.0014   1    60.778
    624      24-46      9.5894   -0.0001    +0.0000   +0.0000   +0.0000   -0.0001    +0.0038   1    54.531
    625      25-29      8.2934   -0.0002    -0.0000   +0.0000   +0.0000   -0.0002    +0.0093   1    46.847
    626      25-30      8.0916   -0.0004    -0.0000   +0.0000   +0.0000   -0.0004    +0.0106   1    45.567
    627      25-31      8.9675   -0.0002    +0.0000   +0.0000   +0.0000   -0.0002    +0.0059   1    50.992
    628      25-32      9.2968   -0.0002    +0.0000   +0.0000   +0.0000   -0.0002    +0.0047   1    52.899
    629      25-33     10.3489   -0.0001    +0.0000   +0.0000   +0.0000   -0.0001    +0.0021   1    58.452
    630      25-34      8.7968   -0.0002    +0.0000   +0.0000   +0.0000   -0.0002    +0.0067   1    49.972
    631      25-35     10.8926   -0.0000    +0.0000   +0.0000   +0.0000   -0.0000    +0.0014   1    60.962
    632      25-36     10.4668   -0.0001    +0.0000   +0.0000   +0.0000   -0.0001    +0.0019   1    59.014
    633      25-37      9.4474   -0.0001    +0.0000   +0.0000   +0.0000   -0.0001    +0.0042   1    53.753
    634      25-38      7.8966   -0.0014    +0.0000   -0.0010   +0.0000   -0.0004    +0.0119   1    44.298
    635      25-39      7.5028   -0.0019    +0.0000   -0.0014   +0.0000   -0.0005    +0.0151   1    41.692
    636      25-40      8.4754   -0.0004    -0.0000   +0.0000   +0.0000   -0.0004    +0.0083   1    47.996
    637      25-41      9.7732   -0.0001    +0.0000   +0.0000   +0.0000   -0.0001    +0.0033   1    55.523
    638      25-42     10.0445   -0.0001    +0.0000   +0.0000   +0.0000   -0.0001    +0.0027   1    56.936
    639      25-43     11.3572   -0.0000    +0.0000   +0.0000   +0.0000   -0.0000    +0.0009   1    62.917
    640      25-44     12.3049   -0.0000    +0.0000   +0.0000   +0.0000   -0.0000    +0.0004   1    66.365
    641      25-45     12.0931   -0.0000    +0.0000   +0.0000   +0.0000   -0.0000    +0.0005   1    65.653
    642      25-46     10.8689   -0.0000    +0.0000   +0.0000   +0.0000   -0.0000    +0.0014   1    60.861
    643      26-29      8.8728   -0.0001    -0.0000   +0.0000   +0.0000   -0.0001    +0.0063   1    50.429
    644      26-30      8.6865   -0.0003    -0.0000   +0.0000   +0.0000   -0.0003    +0.0072   1    49.300
    645      26-31      9.4144   -0.0001    +0.0000   +0.0000   +0.0000   -0.0001    +0.0043   1    53.568
    646      26-32      9.7423   -0.0001    +0.0000   +0.0000   +0.0000   -0.0001    +0.0034   1    55.361
    647      26-33     10.6644   -0.0001    +0.0000   +0.0000   +0.0000   -0.0001    +0.0016   1    59.940
    648      26-34      9.3761   -0.0002    +0.0000   +0.0000   +0.0000   -0.0002    +0.0044   1    53.353
    649      26-35     11.1988   -0.0000    +0.0000   +0.0000   +0.0000   -0.0000    +0.0010   1    62.273
    650      26-36     10.8787   -0.0000    +0.0000   +0.0000   +0.0000   -0.0000    +0.0014   1    60.905
    651      26-37      9.9968   -0.0001    +0.0000   +0.0000   +0.0000   -0.0001    +0.0028   1    56.688
    652      26-38      8.6388   -0.0003    +0.0000   +0.0000   +0.0000   -0.0003    +0.0074   1    49.013
    653      26-39      8.2621   -0.0003    +0.0000   +0.0000   +0.0000   -0.0003    +0.0095   1    46.655
    654      26-40      8.8526   -0.0003    -0.0000   +0.0000   +0.0000   -0.0003    +0.0064   1    50.303
    655      26-41     10.0212   -0.0001    +0.0000   +0.0000   +0.0000   -0.0001    +0.0027   1    56.816
    656      26-42     10.1183   -0.0001    +0.0000   +0.0000   +0.0000   -0.0001    +0.0025   1    57.313
    657      26-43     11.3537   -0.0000    +0.0000   +0.0000   +0.0000   -0.0000    +0.0009   1    62.906
    658      26-44     12.3780   -0.0000    +0.0000   +0.0000   +0.0000   -0.0000    +0.0004   1    66.599
    659      26-45     12.3081   -0.0000    +0.0000   +0.0000   +0.0000   -0.0000    +0.0004   1    66.373
    660      26-46     11.1777   -0.0000    +0.0000   +0.0000   +0.0000   -0.0000    +0.0011   1    62.186
    661      27-29      8.2503   -0.0002    -0.0000   +0.0000   +0.0000   -0.0002    +0.0096   1    46.583
    662      27-30      8.1337   -0.0004    -0.0000   +0.0000   +0.0000   -0.0004    +0.0103   1    45.839
    663      27-31      8.7435   -0.0002    +0.0000   +0.0000   +0.0000   -0.0002    +0.0069   1    49.649
    664      27-32      9.1486   -0.0002    +0.0000   +0.0000   +0.0000   -0.0002    +0.0052   1    52.053
    665      27-33      9.9801   -0.0001    +0.0000   +0.0000   +0.0000   -0.0001    +0.0028   1    56.608
    666      27-34      8.9771   -0.0002    +0.0000   +0.0000   +0.0000   -0.0002    +0.0059   1    51.044
    667      27-35     10.5947   -0.0001    +0.0000   +0.0000   +0.0000   -0.0001    +0.0017   1    59.614
    668      27-36     10.4418   -0.0001    +0.0000   +0.0000   +0.0000   -0.0001    +0.0020   1    58.901
    669      27-37      9.6715   -0.0001    +0.0000   +0.0000   +0.0000   -0.0001    +0.0036   1    54.981
    670      27-38      8.3783   -0.0003    +0.0000   +0.0000   +0.0000   -0.0003    +0.0088   1    47.392
    671      27-39      7.9265   -0.0014    +0.0000   -0.0010   +0.0000   -0.0004    +0.0117   1    44.491
    672      27-40      8.0754   -0.0005    -0.0000   +0.0000   +0.0000   -0.0005    +0.0107   1    45.454
    673      27-41      9.1152   -0.0001    +0.0000   +0.0000   +0.0000   -0.0001    +0.0054   1    51.854
    674      27-42      9.1098   -0.0002    +0.0000   +0.0000   +0.0000   -0.0002    +0.0054   1    51.825
    675      27-43     10.2770   -0.0001    +0.0000   +0.0000   +0.0000   -0.0001    +0.0022   1    58.098
    676      27-44     11.3193   -0.0000    +0.0000   +0.0000   +0.0000   -0.0000    +0.0009   1    62.767
    677      27-45     11.3336   -0.0000    +0.0000   +0.0000   +0.0000   -0.0000    +0.0009   1    62.822
    678      27-46     10.2859   -0.0001    +0.0000   +0.0000   +0.0000   -0.0001    +0.0022   1    58.142
    679      28-29      6.8582   -0.0028    -0.0001   -0.0024   +0.0000   -0.0003    +0.0215   1    37.329
    680      28-30      6.8159   -0.0032    -0.0000   -0.0025   +0.0000   -0.0007    +0.0220   1    37.032
    681      28-31      7.4571   -0.0019    +0.0000   -0.0014   +0.0000   -0.0005    +0.0155   1    41.385
    682      28-32      7.9723   -0.0013    +0.0000   -0.0010   +0.0000   -0.0004    +0.0114   1    44.786
    683      28-33      8.8536   -0.0002    +0.0000   +0.0000   +0.0000   -0.0002    +0.0064   1    50.313
    684      28-34      7.8940   -0.0014    +0.0000   -0.0010   +0.0000   -0.0004    +0.0119   1    44.285
    685      28-35      9.5843   -0.0001    +0.0000   +0.0000   +0.0000   -0.0001    +0.0038   1    54.505
    686      28-36      9.5123   -0.0001    +0.0000   +0.0000   +0.0000   -0.0001    +0.0040   1    54.109
    687      28-37      8.7199   -0.0002    +0.0000   +0.0000   +0.0000   -0.0002    +0.0070   1    49.508
    688      28-38      7.2864   -0.0022    +0.0000   -0.0017   +0.0000   -0.0006    +0.0171   1    40.229
    689      28-39      6.7101   -0.0035    +0.0000   -0.0027   +0.0000   -0.0008    +0.0233   1    36.305
    690      28-40      6.7182   -0.0038    -0.0000   -0.0027   +0.0000   -0.0010    +0.0232   1    36.369
    691      28-41      7.7733   -0.0014    +0.0000   -0.0011   +0.0000   -0.0003    +0.0129   1    43.486
    692      28-42      7.8563   -0.0014    +0.0000   -0.0010   +0.0000   -0.0004    +0.0122   1    44.038
    693      28-43      9.0547   -0.0002    +0.0000   +0.0000   +0.0000   -0.0002    +0.0056   1    51.503
    694      28-44     10.0378   -0.0001    +0.0000   +0.0000   +0.0000   -0.0001    +0.0027   1    56.904
    695      28-45      9.9827   -0.0001    +0.0000   +0.0000   +0.0000   -0.0001    +0.0028   1    56.616
    696      28-46      8.9090   -0.0002    +0.0000   +0.0000   +0.0000   -0.0002    +0.0062   1    50.639
    697      29-41      4.1698   -0.0271    -0.0015   -0.0249   +0.0000   -0.0006    +0.0676   1    19.582
    698      29-42      5.3870   -0.0107    -0.0002   -0.0099   +0.0000   -0.0006    +0.0432   1    27.314
    699      29-43      6.3937   -0.0041    -0.0000   -0.0037   +0.0000   -0.0004    +0.0273   1    34.147
    700      29-44      6.3986   -0.0041    -0.0000   -0.0036   +0.0000   -0.0004    +0.0272   1    34.180
    701      29-45      5.4164   -0.0103    -0.0000   -0.0096   +0.0000   -0.0007    +0.0427   1    27.507
    702      29-46      4.1820   -0.0262    -0.0003   -0.0249   +0.0000   -0.0010    +0.0674   1    19.649
    703      30-40      4.7899   -0.0204    +0.0000   -0.0179   +0.0000   -0.0025    +0.0546   1    23.430
    704      30-41      5.5731   -0.0093    -0.0000   -0.0082   +0.0000   -0.0011    +0.0399   1    28.552
    705      30-42      6.7016   -0.0035    -0.0000   -0.0028   +0.0000   -0.0008    +0.0234   1    36.257
    706      30-43      7.6713   -0.0017    -0.0000   -0.0012   +0.0000   -0.0005    +0.0137   1    42.817
    707      30-44      7.6655   -0.0017    -0.0000   -0.0012   +0.0000   -0.0005    +0.0137   1    42.777
    708      30-45      6.7027   -0.0036    -0.0000   -0.0028   +0.0000   -0.0008    +0.0234   1    36.257
    709      30-46      5.5664   -0.0096    -0.0000   -0.0083   +0.0000   -0.0013    +0.0400   1    28.515
    710      31-40      5.5422   -0.0103    -0.0000   -0.0085   +0.0000   -0.0019    +0.0405   1    28.345
    711      31-41      6.0228   -0.0061    +0.0000   -0.0052   +0.0000   -0.0009    +0.0326   1    31.599
    712      31-42      7.0575   -0.0026    +0.0000   -0.0020   +0.0000   -0.0006    +0.0194   1    38.677
    713      31-43      7.8356   -0.0015    +0.0000   -0.0011   +0.0000   -0.0004    +0.0124   1    43.894
    714      31-44      7.7017   -0.0016    +0.0000   -0.0012   +0.0000   -0.0005    +0.0134   1    43.019
    715      31-45      6.7664   -0.0034    +0.0000   -0.0026   +0.0000   -0.0008    +0.0226   1    36.702
    716      31-46      5.8465   -0.0074    +0.0000   -0.0062   +0.0000   -0.0012    +0.0354   1    30.399
    717      32-40      6.9024   -0.0033    -0.0000   -0.0023   +0.0000   -0.0010    +0.0211   1    37.624
    718      32-41      7.4067   -0.0019    +0.0000   -0.0015   +0.0000   -0.0004    +0.0159   1    41.046
    719      32-42      8.4065   -0.0003    +0.0000   +0.0000   +0.0000   -0.0003    +0.0087   1    47.567
    720      32-43      9.1575   -0.0002    +0.0000   +0.0000   +0.0000   -0.0002    +0.0052   1    52.103
    721      32-44      9.0055   -0.0002    +0.0000   +0.0000   +0.0000   -0.0002    +0.0058   1    51.218
    722      32-45      8.0794   -0.0004    +0.0000   +0.0000   +0.0000   -0.0004    +0.0107   1    45.479
    723      32-46      7.2151   -0.0024    +0.0000   -0.0018   +0.0000   -0.0006    +0.0178   1    39.748
    724      33-40      7.8356   -0.0016    -0.0000   -0.0011   +0.0000   -0.0006    +0.0124   1    43.894
    725      33-41      8.1266   -0.0003    +0.0000   +0.0000   +0.0000   -0.0003    +0.0103   1    45.790
    726      33-42      9.0263   -0.0002    +0.0000   +0.0000   +0.0000   -0.0002    +0.0057   1    51.341
    727      33-43      9.6076   -0.0001    +0.0000   +0.0000   +0.0000   -0.0001    +0.0038   1    54.629
    728      33-44      9.3597   -0.0002    +0.0000   +0.0000   +0.0000   -0.0002    +0.0045   1    53.259
    729      33-45      8.4937   -0.0003    +0.0000   +0.0000   +0.0000   -0.0003    +0.0082   1    48.111
    730      33-46      7.8277   -0.0015    +0.0000   -0.0011   +0.0000   -0.0004    +0.0124   1    43.842
    731      34-40      7.5402   -0.0020    -0.0000   -0.0013   +0.0000   -0.0007    +0.0148   1    41.942
    732      34-41      8.2660   -0.0003    +0.0000   +0.0000   +0.0000   -0.0003    +0.0095   1    46.679
    733      34-42      9.3134   -0.0002    +0.0000   +0.0000   +0.0000   -0.0002    +0.0047   1    52.994
    734      34-43     10.1940   -0.0001    +0.0000   +0.0000   +0.0000   -0.0001    +0.0024   1    57.690
    735      34-44     10.1240   -0.0001    +0.0000   +0.0000   +0.0000   -0.0001    +0.0025   1    57.336
    736      34-45      9.1691   -0.0002    +0.0000   +0.0000   +0.0000   -0.0002    +0.0052   1    52.172
    737      34-46      8.1770   -0.0003    +0.0000   +0.0000   +0.0000   -0.0003    +0.0100   1    46.110
    738      35-40      9.1920   -0.0002    -0.0000   +0.0000   +0.0000   -0.0002    +0.0051   1    52.299
    739      35-41      9.5299   -0.0001    +0.0000   +0.0000   +0.0000   -0.0001    +0.0040   1    54.209
    740      35-42     10.4141   -0.0001    +0.0000   +0.0000   +0.0000   -0.0001    +0.0020   1    58.764
    741      35-43     10.9958   -0.0000    +0.0000   +0.0000   +0.0000   -0.0000    +0.0012   1    61.416
    742      35-44     10.7528   -0.0001    +0.0000   +0.0000   +0.0000   -0.0001    +0.0015   1    60.338
    743      35-45      9.8969   -0.0001    +0.0000   +0.0000   +0.0000   -0.0001    +0.0030   1    56.176
    744      35-46      9.2434   -0.0002    +0.0000   +0.0000   +0.0000   -0.0002    +0.0049   1    52.601
    745      36-40      9.6662   -0.0002    -0.0000   +0.0000   +0.0000   -0.0002    +0.0036   1    54.946
    746      36-41     10.1967   -0.0001    +0.0000   +0.0000   +0.0000   -0.0001    +0.0024   1    57.705
    747      36-42     11.1438   -0.0000    +0.0000   +0.0000   +0.0000   -0.0000    +0.0011   1    62.039
    748      36-43     11.8567   -0.0000    +0.0000   +0.0000   +0.0000   -0.0000    +0.0006   1    64.821
    749      36-44     11.6884   -0.0000    +0.0000   +0.0000   +0.0000   -0.0000    +0.0007   1    64.200
    750      36-45     10.7874   -0.0001    +0.0000   +0.0000   +0.0000   -0.0001    +0.0015   1    60.495
    751      36-46      9.9957   -0.0001    +0.0000   +0.0000   +0.0000   -0.0001    +0.0028   1    56.688
    752      37-40      8.9423   -0.0003    -0.0000   +0.0000   +0.0000   -0.0003    +0.0061   1    50.837
    753      37-41      9.6476   -0.0001    +0.0000   +0.0000   +0.0000   -0.0001    +0.0036   1    54.849
    754      37-42     10.6634   -0.0001    +0.0000   +0.0000   +0.0000   -0.0001    +0.0016   1    59.933
    755      37-43     11.5096   -0.0000    +0.0000   +0.0000   +0.0000   -0.0000    +0.0008   1    63.521
    756      37-44     11.4198   -0.0000    +0.0000   +0.0000   +0.0000   -0.0000    +0.0009   1    63.168
    757      37-45     10.4765   -0.0001    +0.0000   +0.0000   +0.0000   -0.0001    +0.0019   1    59.064
    758      37-46      9.5366   -0.0001    +0.0000   +0.0000   +0.0000   -0.0001    +0.0040   1    54.245
    759      38-40      7.0050   -0.0030    -0.0000   -0.0021   +0.0000   -0.0009    +0.0199   1    38.329
    760      38-41      7.9439   -0.0013    +0.0000   -0.0010   +0.0000   -0.0003    +0.0116   1    44.607
    761      38-42      9.0441   -0.0002    +0.0000   +0.0000   +0.0000   -0.0002    +0.0056   1    51.442
    762      38-43     10.0660   -0.0001    +0.0000   +0.0000   +0.0000   -0.0001    +0.0027   1    57.046
    763      38-44     10.0965   -0.0001    +0.0000   +0.0000   +0.0000   -0.0001    +0.0026   1    57.204
    764      38-45      9.1244   -0.0002    +0.0000   +0.0000   +0.0000   -0.0002    +0.0053   1    51.914
    765      38-46      7.9815   -0.0013    +0.0000   -0.0009   +0.0000   -0.0004    +0.0113   1    44.849
    766      39-40      5.6587   -0.0093    -0.0000   -0.0075   +0.0000   -0.0018    +0.0385   1    29.132
    767      39-41      6.6608   -0.0035    +0.0000   -0.0029   +0.0000   -0.0006    +0.0239   1    35.969
    768      39-42      7.7939   -0.0015    +0.0000   -0.0011   +0.0000   -0.0004    +0.0127   1    43.618
    769      39-43      8.8680   -0.0002    +0.0000   +0.0000   +0.0000   -0.0002    +0.0064   1    50.398
    770      39-44      8.9408   -0.0002    +0.0000   +0.0000   +0.0000   -0.0002    +0.0061   1    50.837
    771      39-45      7.9737   -0.0013    +0.0000   -0.0010   +0.0000   -0.0004    +0.0114   1    44.798
    772      39-46      6.7584   -0.0034    +0.0000   -0.0026   +0.0000   -0.0007    +0.0227   1    36.639
                                ________   ________  ________  ________  ________
Total                            -2.7163    +0.0040   -2.6599    +0.0000   -0.0604
                                ________  ________  ________  ________ ________
                                   Total       Elec       vdW        Hb    Desolv


	Per-atom Intramolecular Energy Analysis
	=======================================

Atom Type   Total     Elec       vdW        Hb     Desolv 
____ ___  ________  ________  ________  ________  ________
   1  C    -0.0911   -0.0048   -0.1166   +0.0000   +0.0303
   2  OA   -0.1023   +0.0028   -0.1041   +0.0000   -0.0010
   3  N    -0.0673   +0.0023   -0.0902   +0.0000   +0.0206
   4  C    -0.1082   -0.0008   -0.0991   +0.0000   -0.0083
   5  C    -0.1167   -0.0022   -0.1200   +0.0000   +0.0055
   6  OA   -0.0659   +0.0044   -0.0649   +0.0000   -0.0053
   7  C    -0.1151   -0.0022   -0.1184   +0.0000   +0.0055
   8  OA   -0.0687   +0.0043   -0.0677   +0.0000   -0.0053
   9  C    -0.1079   -0.0008   -0.0989   +0.0000   -0.0082
  10  N    -0.0668   +0.0023   -0.0895   +0.0000   +0.0205
  11  C    -0.0629   -0.0014   -0.0574   +0.0000   -0.0041
  12  A    -0.1079   +0.0000   -0.0998   +0.0000   -0.0081
  13  A    -0.1054   -0.0001   -0.1002   +0.0000   -0.0051
  14  A    -0.0530   +0.0000   -0.0512   +0.0000   -0.0019
  15  A    -0.0234   +0.0000   -0.0223   +0.0000   -0.0011
  16  A    -0.0055   +0.0000   -0.0050   +0.0000   -0.0005
  17  A    -0.0317   +0.0000   -0.0302   +0.0000   -0.0015
  18  A    -0.0007   +0.0000   -0.0005   +0.0000   -0.0002
  19  A    -0.0015   +0.0000   -0.0011   +0.0000   -0.0003
  20  A    -0.0105   +0.0000   -0.0096   +0.0000   -0.0009
  21  A    -0.0769   -0.0001   -0.0722   +0.0000   -0.0046
  22  C    -0.0786   -0.0002   -0.0637   +0.0000   -0.0147
  23  A    -0.0944   +0.0009   -0.0918   +0.0000   -0.0035
  24  A    -0.0842   +0.0002   -0.0814   +0.0000   -0.0029
  25  A    -0.0361   +0.0000   -0.0338   +0.0000   -0.0023
  26  A    -0.0229   +0.0000   -0.0213   +0.0000   -0.0016
  27  A    -0.0444   +0.0000   -0.0425   +0.0000   -0.0020
  28  A    -0.0634   +0.0003   -0.0612   +0.0000   -0.0024
  29  C    -0.0622   -0.0015   -0.0567   +0.0000   -0.0040
  30  A    -0.1076   +0.0000   -0.0995   +0.0000   -0.0081
  31  A    -0.0762   -0.0001   -0.0716   +0.0000   -0.0044
  32  A    -0.0313   +0.0000   -0.0299   +0.0000   -0.0014
  33  A    -0.0098   +0.0000   -0.0090   +0.0000   -0.0008
  34  A    -0.0249   +0.0000   -0.0238   +0.0000   -0.0011
  35  A    -0.0022   +0.0000   -0.0019   +0.0000   -0.0003
  36  A    -0.0015   +0.0000   -0.0013   +0.0000   -0.0002
  37  A    -0.0054   +0.0000   -0.0049   +0.0000   -0.0005
  38  A    -0.0602   +0.0000   -0.0584   +0.0000   -0.0018
  39  A    -0.0828   -0.0001   -0.0776   +0.0000   -0.0051
  40  C    -0.0783   -0.0002   -0.0635   +0.0000   -0.0146
  41  A    -0.0962   +0.0007   -0.0935   +0.0000   -0.0034
  42  A    -0.0662   +0.0003   -0.0641   +0.0000   -0.0024
  43  A    -0.0473   +0.0000   -0.0453   +0.0000   -0.0020
  44  A    -0.0250   +0.0000   -0.0235   +0.0000   -0.0015
  45  A    -0.0393   +0.0000   -0.0371   +0.0000   -0.0023
  46  A    -0.0864   +0.0001   -0.0838   +0.0000   -0.0028


Total Intramolecular Interaction Energy   = -2.716 kcal/mol


The internal energy of the unbound extended state was computed to be -2.716 kcal/mol

NOTE:   The AutoDock internal energy of the "extended" state was negative.

NOTE:   The unbound state was set to the "extended" state.



The internal energy of the unbound state was set to -2.716 kcal/mol



	FINAL UNBOUND STATE
	___________________


Detailed state:  trans -18.857 13.818 22.536 quatxyzw -0.689733 -0.208439 -0.026340 0.692912 center -9.192 15.906 27.947 ntor 8 -169.7159 -157.8174 63.2714 59.0990 -18.3518 -2.6972 -56.6126 -68.8850
State:	-18.857  13.818  22.536  -0.957 -0.289 -0.037 92.278   -169.72 -157.82   63.27   59.10  -18.35   -2.70  -56.61  -68.89

UNBOUND: MODEL        0
UNBOUND: USER    Run = 0
UNBOUND: USER    DPF = config.dpf
UNBOUND: USER  
UNBOUND: USER    (1) Final Intermolecular Energy     =   +0.00 kcal/mol
UNBOUND: USER        vdW + Hbond + desolv Energy     =   +0.00 kcal/mol
UNBOUND: USER        Electrostatic Energy            =   +0.00 kcal/mol
UNBOUND: USER    (2) Final Total Internal Energy     =   -2.72 kcal/mol
UNBOUND: USER    (3) Torsional Free Energy           =   +2.39 kcal/mol
UNBOUND: USER    (4) Unbound System's Energy         =   -2.72 kcal/mol
UNBOUND: USER    
UNBOUND: USER    
UNBOUND: USER    NEWDPF move ligand.pdbqt
UNBOUND: USER    NEWDPF about -9.192000 15.906000 27.947000
UNBOUND: USER    NEWDPF tran0 -18.857060 13.818231 22.535875
UNBOUND: USER    NEWDPF quaternion0 -0.689733 -0.208439 -0.026340 0.692912
UNBOUND: USER    NEWDPF axisangle0 -0.956605 -0.289089 -0.036532 92.277808
UNBOUND: USER    NEWDPF quat0 -0.956605 -0.289089 -0.036532 92.277808
UNBOUND: USER    NEWDPF dihe0 -169.72 -157.82 63.27 59.10 -18.35 -2.70 -56.61 -68.89 
UNBOUND: USER  keepresnum = 1 
UNBOUND: USER  
UNBOUND: REMARK  8 active torsions:
UNBOUND: REMARK  status: ('A' for Active; 'I' for Inactive)
UNBOUND: REMARK    1  A    between atoms: N2_1849  and  C2_1850 
UNBOUND: REMARK    2  A    between atoms: C2_1850  and  C20_1859 
UNBOUND: REMARK    3  A    between atoms: C3_1851  and  C31_1869 
UNBOUND: REMARK    4  A    between atoms: C6_1856  and  C61_1876 
UNBOUND: REMARK    5  A    between atoms: N7_1857  and  C7_1858 
UNBOUND: REMARK    6  A    between atoms: C7_1858  and  C70_1883 
UNBOUND: REMARK    7  A    between atoms: C31_1869  and  C32_1870 
UNBOUND: REMARK    8  A    between atoms: C61_1876  and  C62_1877 
UNBOUND: USER                              x       y       z     vdW  Elec       q    Type
UNBOUND: USER                           _______ _______ _______ _____ _____    ______ ____
UNBOUND: ROOT
UNBOUND: ATOM      1  C1  XK2 A 263     -18.537  13.960  21.571 +0.00 +0.00    +0.324 C 
UNBOUND: ATOM      2  O1  XK2 A 263     -18.185  14.142  20.415 +0.00 +0.00    -0.247 OA
UNBOUND: ATOM      3  N2  XK2 A 263     -18.525  15.040  22.408 +0.00 +0.00    -0.298 N 
UNBOUND: ATOM      4  C3  XK2 A 263     -18.274  14.956  23.862 +0.00 +0.00    +0.123 C 
UNBOUND: ATOM      5  C4  XK2 A 263     -19.328  14.255  24.710 +0.00 +0.00    +0.205 C 
UNBOUND: ATOM      6  O4  XK2 A 263     -18.992  14.635  26.015 +0.00 +0.00    -0.219 OA
UNBOUND: ATOM      7  C5  XK2 A 263     -19.322  12.746  24.507 +0.00 +0.00    +0.205 C 
UNBOUND: ATOM      8  O5  XK2 A 263     -20.198  12.105  25.396 +0.00 +0.00    -0.219 OA
UNBOUND: ATOM      9  C6  XK2 A 263     -19.800  12.394  23.105 +0.00 +0.00    +0.123 C 
UNBOUND: ATOM     10  N7  XK2 A 263     -18.912  12.703  21.972 +0.00 +0.00    -0.298 N 
UNBOUND: ENDROOT
UNBOUND: BRANCH   3  11
UNBOUND: ATOM     11  C2  XK2 A 263     -18.509  16.353  21.748 +0.00 +0.00    +0.133 C 
UNBOUND: BRANCH  11  12
UNBOUND: ATOM     12  C20 XK2 A 263     -19.796  16.973  21.271 +0.00 +0.00    +0.000 A 
UNBOUND: ATOM     13  C21 XK2 A 263     -20.566  16.418  20.210 +0.00 +0.00    -0.002 A 
UNBOUND: ATOM     14  C22 XK2 A 263     -21.674  17.123  19.697 +0.00 +0.00    -0.000 A 
UNBOUND: ATOM     15  C23 XK2 A 263     -22.004  18.380  20.264 +0.00 +0.00    -0.000 A 
UNBOUND: ATOM     16  C24 XK2 A 263     -23.068  19.135  19.736 +0.00 +0.00    -0.000 A 
UNBOUND: ATOM     17  C28 XK2 A 263     -21.239  18.919  21.345 +0.00 +0.00    -0.000 A 
UNBOUND: ATOM     18  C25 XK2 A 263     -23.375  20.402  20.287 +0.00 +0.00    -0.000 A 
UNBOUND: ATOM     19  C26 XK2 A 263     -22.642  20.934  21.354 +0.00 +0.00    -0.000 A 
UNBOUND: ATOM     20  C27 XK2 A 263     -21.567  20.189  21.887 +0.00 +0.00    -0.000 A 
UNBOUND: ATOM     21  C29 XK2 A 263     -20.135  18.214  21.852 +0.00 +0.00    -0.002 A 
UNBOUND: ENDBRANCH  11  12
UNBOUND: ENDBRANCH   3  11
UNBOUND: BRANCH   4  22
UNBOUND: ATOM     22  C31 XK2 A 263     -16.791  14.522  24.102 +0.00 +0.00    +0.051 C 
UNBOUND: BRANCH  22  23
UNBOUND: ATOM     23  C32 XK2 A 263     -16.105  15.397  25.146 +0.00 +0.00    -0.020 A 
UNBOUND: ATOM     24  C37 XK2 A 263     -15.361  16.534  24.738 +0.00 +0.00    -0.004 A 
UNBOUND: ATOM     25  C36 XK2 A 263     -14.626  17.271  25.689 +0.00 +0.00    -0.000 A 
UNBOUND: ATOM     26  C35 XK2 A 263     -14.626  16.871  27.049 +0.00 +0.00    -0.000 A 
UNBOUND: ATOM     27  C34 XK2 A 263     -15.368  15.750  27.472 +0.00 +0.00    -0.000 A 
UNBOUND: ATOM     28  C33 XK2 A 263     -16.117  15.016  26.518 +0.00 +0.00    -0.004 A 
UNBOUND: ENDBRANCH  22  23
UNBOUND: ENDBRANCH   4  22
UNBOUND: BRANCH  10  29
UNBOUND: ATOM     29  C7  XK2 A 263     -18.547  11.583  21.101 +0.00 +0.00    +0.133 C 
UNBOUND: BRANCH  29  30
UNBOUND: ATOM     30  C70 XK2 A 263     -17.097  11.181  20.970 +0.00 +0.00    +0.000 A 
UNBOUND: ATOM     31  C71 XK2 A 263     -16.841   9.819  21.219 +0.00 +0.00    -0.002 A 
UNBOUND: ATOM     32  C72 XK2 A 263     -15.567   9.315  20.973 +0.00 +0.00    -0.000 A 
UNBOUND: ATOM     33  C73 XK2 A 263     -15.300   7.946  21.252 +0.00 +0.00    -0.000 A 
UNBOUND: ATOM     34  C77 XK2 A 263     -14.543  10.185  20.477 +0.00 +0.00    -0.000 A 
UNBOUND: ATOM     35  C74 XK2 A 263     -13.994   7.435  21.053 +0.00 +0.00    -0.000 A 
UNBOUND: ATOM     36  C75 XK2 A 263     -12.983   8.296  20.560 +0.00 +0.00    -0.000 A 
UNBOUND: ATOM     37  C76 XK2 A 263     -13.245   9.660  20.265 +0.00 +0.00    -0.000 A 
UNBOUND: ATOM     38  C78 XK2 A 263     -14.807  11.560  20.239 +0.00 +0.00    -0.000 A 
UNBOUND: ATOM     39  C79 XK2 A 263     -16.087  12.057  20.496 +0.00 +0.00    -0.002 A 
UNBOUND: ENDBRANCH  29  30
UNBOUND: ENDBRANCH  10  29
UNBOUND: BRANCH   9  40
UNBOUND: ATOM     40  C61 XK2 A 263     -21.226  12.855  22.727 +0.00 +0.00    +0.051 C 
UNBOUND: BRANCH  40  41
UNBOUND: ATOM     41  C62 XK2 A 263     -22.250  11.775  23.009 +0.00 +0.00    -0.020 A 
UNBOUND: ATOM     42  C67 XK2 A 263     -22.904  11.765  24.262 +0.00 +0.00    -0.004 A 
UNBOUND: ATOM     43  C66 XK2 A 263     -23.870  10.773  24.548 +0.00 +0.00    -0.000 A 
UNBOUND: ATOM     44  C65 XK2 A 263     -24.175   9.806  23.571 +0.00 +0.00    -0.000 A 
UNBOUND: ATOM     45  C64 XK2 A 263     -23.520   9.808  22.307 +0.00 +0.00    -0.000 A 
UNBOUND: ATOM     46  C63 XK2 A 263     -22.549  10.797  22.023 +0.00 +0.00    -0.004 A 
UNBOUND: ENDBRANCH  40  41
UNBOUND: ENDBRANCH   9  40
UNBOUND: TORSDOF 8
UNBOUND: TER
UNBOUND: ENDMDL
________________________________________________________________________________

DPF> ga_run 10                            # do this many hybrid GA-LS runs

centering ligand on specified point: -9.192 15.906 27.947
Furthest true ligand atom from "about" center is 8.638 Angstroms (maxrad).
Number of requested GA dockings = 10 runs
Unbound model to be used is 'extended' [AutoDock 4.0 default].

	BEGINNING GENETIC ALGORITHM DOCKING 1 of 10
Run: 1 Seed: 527116867 1385539441 [ Run 1 of 10 GA/GALS ]
Beginning LAMARCKIAN GENETIC ALGORITHM (LGA), with a maximum of 2500000 energy evaluations.

Final-Value: 3078.931


	FINAL GENETIC ALGORITHM DOCKED STATE
	_______________________________________________


Detailed state:  trans -13.751 16.365 26.225 quatxyzw -0.214203 0.151773 0.593628 -0.760715 center -9.192 15.906 27.947 ntor 8 153.6177 151.4593 -179.3301 -111.2153 -101.1395 -175.5595 176.7521 62.4994
State:	-13.751  16.365  26.225  -0.330  0.234  0.915 -80.945    153.62  151.46 -179.33 -111.22 -101.14 -175.56  176.75   62.50

DOCKED: MODEL        1
DOCKED: USER    Run = 1
DOCKED: USER    DPF = config.dpf
DOCKED: USER  
DOCKED: USER    Estimated Free Energy of Binding    =   +3.08e+03 kcal/mol  [=(1)+(2)+(3)-(4)]
DOCKED: USER    
DOCKED: USER    (1) Final Intermolecular Energy     =   +2.95e+03 kcal/mol
DOCKED: USER        vdW + Hbond + desolv Energy     =   +2.95e+03 kcal/mol
DOCKED: USER        Electrostatic Energy            =   -0.11 kcal/mol
DOCKED: USER    (2) Final Total Internal Energy     = +129.65 kcal/mol
DOCKED: USER    (3) Torsional Free Energy           =   +2.39 kcal/mol
DOCKED: USER    (4) Unbound System's Energy         =   -2.72 kcal/mol
DOCKED: USER    
DOCKED: USER    
DOCKED: USER    NEWDPF move ligand.pdbqt
DOCKED: USER    NEWDPF about -9.192000 15.906000 27.947000
DOCKED: USER    NEWDPF tran0 -13.750961 16.364504 26.224769
DOCKED: USER    NEWDPF quaternion0 -0.214203 0.151773 0.593628 -0.760715
DOCKED: USER    NEWDPF axisangle0 -0.330007 0.233826 0.914561 -80.945379
DOCKED: USER    NEWDPF quat0 -0.330007 0.233826 0.914561 -80.945379
DOCKED: USER    NEWDPF dihe0 153.62 151.46 -179.33 -111.22 -101.14 -175.56 176.75 62.50 
DOCKED: USER  keepresnum = 1 
DOCKED: USER  
DOCKED: REMARK  8 active torsions:
DOCKED: REMARK  status: ('A' for Active; 'I' for Inactive)
DOCKED: REMARK    1  A    between atoms: N2_1849  and  C2_1850 
DOCKED: REMARK    2  A    between atoms: C2_1850  and  C20_1859 
DOCKED: REMARK    3  A    between atoms: C3_1851  and  C31_1869 
DOCKED: REMARK    4  A    between atoms: C6_1856  and  C61_1876 
DOCKED: REMARK    5  A    between atoms: N7_1857  and  C7_1858 
DOCKED: REMARK    6  A    between atoms: C7_1858  and  C70_1883 
DOCKED: REMARK    7  A    between atoms: C31_1869  and  C32_1870 
DOCKED: REMARK    8  A    between atoms: C61_1876  and  C62_1877 
DOCKED: USER                              x       y       z     vdW  Elec       q    Type
DOCKED: USER                           _______ _______ _______ _____ _____    ______ ____
DOCKED: ROOT
DOCKED: ATOM      1  C1  XK2 A 263     -12.787  16.683  26.072+99.99 -0.89    +0.324 C 
DOCKED: ATOM      2  O1  XK2 A 263     -11.631  17.032  25.884 +3.59 +0.44    -0.247 OA
DOCKED: ATOM      3  N2  XK2 A 263     -13.561  16.453  24.969+36.84 +0.37    -0.298 N 
DOCKED: ATOM      4  C3  XK2 A 263     -15.023  16.666  24.928+99.99 -0.08    +0.123 C 
DOCKED: ATOM      5  C4  XK2 A 263     -15.885  15.742  25.779+99.99 -0.07    +0.205 C 
DOCKED: ATOM      6  O4  XK2 A 263     -17.173  15.952  25.273 +2.93 +0.05    -0.219 OA
DOCKED: ATOM      7  C5  XK2 A 263     -15.769  16.052  27.265+99.99 -0.08    +0.205 C 
DOCKED: ATOM      8  O5  XK2 A 263     -16.672  15.290  28.021+99.99 -0.01    -0.219 OA
DOCKED: ATOM      9  C6  XK2 A 263     -14.378  15.701  27.777 +3.59 -0.08    +0.123 C 
DOCKED: ATOM     10  N7  XK2 A 263     -13.250  16.549  27.356+18.01 +0.59    -0.298 N 
DOCKED: ENDROOT
DOCKED: BRANCH   3  11
DOCKED: ATOM     11  C2  XK2 A 263     -12.828  16.234  23.716+99.99 -0.07    +0.133 C 
DOCKED: BRANCH  11  12
DOCKED: ATOM     12  C20 XK2 A 263     -11.652  17.110  23.366+49.25 -0.00    +0.000 A 
DOCKED: ATOM     13  C21 XK2 A 263     -11.299  17.415  22.022+60.01 +0.00    -0.002 A 
DOCKED: ATOM     14  C22 XK2 A 263     -10.101  18.104  21.746+45.61 +0.00    -0.000 A 
DOCKED: ATOM     15  C23 XK2 A 263      -9.270  18.489  22.828+63.29 -0.00    -0.000 A 
DOCKED: ATOM     16  C24 XK2 A 263      -8.040  19.126  22.582+20.46 -0.00    -0.000 A 
DOCKED: ATOM     17  C28 XK2 A 263      -9.645  18.199  24.177+19.53 +0.00    -0.000 A 
DOCKED: ATOM     18  C25 XK2 A 263      -7.201  19.483  23.666 +0.27 +0.00    -0.000 A 
DOCKED: ATOM     19  C26 XK2 A 263      -7.564  19.216  24.991+13.28 +0.00    -0.000 A 
DOCKED: ATOM     20  C27 XK2 A 263      -8.793  18.570  25.249+23.70 +0.00    -0.000 A 
DOCKED: ATOM     21  C29 XK2 A 263     -10.839  17.511  24.447+27.22 +0.00    -0.002 A 
DOCKED: ENDBRANCH  11  12
DOCKED: ENDBRANCH   3  11
DOCKED: BRANCH   4  22
DOCKED: ATOM     22  C31 XK2 A 263     -15.322  18.196  25.045+59.49 -0.04    +0.051 C 
DOCKED: BRANCH  22  23
DOCKED: ATOM     23  C32 XK2 A 263     -15.958  18.550  26.386+16.70 +0.02    -0.020 A 
DOCKED: ATOM     24  C37 XK2 A 263     -17.140  19.332  26.425+42.91 +0.00    -0.004 A 
DOCKED: ATOM     25  C36 XK2 A 263     -17.659  19.762  27.664+17.85 +0.00    -0.000 A 
DOCKED: ATOM     26  C35 XK2 A 263     -16.994  19.418  28.868+26.95 +0.00    -0.000 A 
DOCKED: ATOM     27  C34 XK2 A 263     -15.824  18.633  28.847+99.99 +0.00    -0.000 A 
DOCKED: ATOM     28  C33 XK2 A 263     -15.309  18.189  27.602+16.46 +0.00    -0.004 A 
DOCKED: ENDBRANCH  22  23
DOCKED: ENDBRANCH   4  22
DOCKED: BRANCH  10  29
DOCKED: ATOM     29  C7  XK2 A 263     -12.454  17.158  28.425+99.99 -0.26    +0.133 C 
DOCKED: BRANCH  29  30
DOCKED: ATOM     30  C70 XK2 A 263     -12.616  16.674  29.846+36.39 -0.00    +0.000 A 
DOCKED: ATOM     31  C71 XK2 A 263     -13.951  16.524  30.266+83.44 +0.00    -0.002 A 
DOCKED: ATOM     32  C72 XK2 A 263     -14.209  15.936  31.502+30.94 +0.00    -0.000 A 
DOCKED: ATOM     33  C73 XK2 A 263     -15.557  15.811  31.939+26.12 -0.00    -0.000 A 
DOCKED: ATOM     34  C77 XK2 A 263     -13.118  15.500  32.321 +1.13 +0.00    -0.000 A 
DOCKED: ATOM     35  C74 XK2 A 263     -15.828  15.260  33.215+61.19 -0.00    -0.000 A 
DOCKED: ATOM     36  C75 XK2 A 263     -14.748  14.827  34.024 +7.60 +0.00    -0.000 A 
DOCKED: ATOM     37  C76 XK2 A 263     -13.402  14.935  33.588 +1.06 +0.00    -0.000 A 
DOCKED: ATOM     38  C78 XK2 A 263     -11.774  15.665  31.894+29.60 +0.00    -0.000 A 
DOCKED: ATOM     39  C79 XK2 A 263     -11.527  16.263  30.656+48.86 +0.00    -0.002 A 
DOCKED: ENDBRANCH  29  30
DOCKED: ENDBRANCH  10  29
DOCKED: BRANCH   9  40
DOCKED: ATOM     40  C61 XK2 A 263     -13.941  14.227  27.628+33.43 -0.01    +0.051 C 
DOCKED: BRANCH  40  41
DOCKED: ATOM     41  C62 XK2 A 263     -13.104  14.021  26.382+44.87 +0.01    -0.020 A 
DOCKED: ATOM     42  C67 XK2 A 263     -12.126  14.987  26.050+24.50 +0.00    -0.004 A 
DOCKED: ATOM     43  C66 XK2 A 263     -11.324  14.815  24.898+33.50 +0.00    -0.000 A 
DOCKED: ATOM     44  C65 XK2 A 263     -11.507  13.673  24.095+29.84 +0.00    -0.000 A 
DOCKED: ATOM     45  C64 XK2 A 263     -12.490  12.696  24.422+99.99 +0.00    -0.000 A 
DOCKED: ATOM     46  C63 XK2 A 263     -13.296  12.871  25.571+99.99 +0.00    -0.004 A 
DOCKED: ENDBRANCH  40  41
DOCKED: ENDBRANCH   9  40
DOCKED: TORSDOF 8
DOCKED: TER
DOCKED: ENDMDL
________________________________________________________________________________


	BEGINNING GENETIC ALGORITHM DOCKING 2 of 10
Run: 2 Seed: 1711543016 660717286 [ Run 2 of 10 GA/GALS ]
Beginning LAMARCKIAN GENETIC ALGORITHM (LGA), with a maximum of 2500000 energy evaluations.

Final-Value: 6054.267


	FINAL GENETIC ALGORITHM DOCKED STATE
	_______________________________________________


Detailed state:  trans -9.921 19.580 29.447 quatxyzw 0.554295 0.012402 -0.740756 -0.379319 center -9.192 15.906 27.947 ntor 8 -158.5289 124.4685 81.9230 -167.8916 -108.5050 107.6490 140.9452 -71.7809
State:	 -9.921  19.580  29.447   0.599  0.013 -0.801 -135.417   -158.53  124.47   81.92 -167.89 -108.51  107.65  140.95  -71.78

DOCKED: MODEL        2
DOCKED: USER    Run = 2
DOCKED: USER    DPF = config.dpf
DOCKED: USER  
DOCKED: USER    Estimated Free Energy of Binding    =   +6.06e+03 kcal/mol  [=(1)+(2)+(3)-(4)]
DOCKED: USER    
DOCKED: USER    (1) Final Intermolecular Energy     =   +5.88e+03 kcal/mol
DOCKED: USER        vdW + Hbond + desolv Energy     =   +5.88e+03 kcal/mol
DOCKED: USER        Electrostatic Energy            =   +0.84 kcal/mol
DOCKED: USER    (2) Final Total Internal Energy     = +173.64 kcal/mol
DOCKED: USER    (3) Torsional Free Energy           =   +2.39 kcal/mol
DOCKED: USER    (4) Unbound System's Energy         =   -2.72 kcal/mol
DOCKED: USER    
DOCKED: USER    
DOCKED: USER    NEWDPF move ligand.pdbqt
DOCKED: USER    NEWDPF about -9.192000 15.906000 27.947000
DOCKED: USER    NEWDPF tran0 -9.920702 19.580432 29.446551
DOCKED: USER    NEWDPF quaternion0 0.554295 0.012402 -0.740756 -0.379319
DOCKED: USER    NEWDPF axisangle0 0.599066 0.013404 -0.800588 -135.416927
DOCKED: USER    NEWDPF quat0 0.599066 0.013404 -0.800588 -135.416927
DOCKED: USER    NEWDPF dihe0 -158.53 124.47 81.92 -167.89 -108.51 107.65 140.95 -71.78 
DOCKED: USER  keepresnum = 1 
DOCKED: USER  
DOCKED: REMARK  8 active torsions:
DOCKED: REMARK  status: ('A' for Active; 'I' for Inactive)
DOCKED: REMARK    1  A    between atoms: N2_1849  and  C2_1850 
DOCKED: REMARK    2  A    between atoms: C2_1850  and  C20_1859 
DOCKED: REMARK    3  A    between atoms: C3_1851  and  C31_1869 
DOCKED: REMARK    4  A    between atoms: C6_1856  and  C61_1876 
DOCKED: REMARK    5  A    between atoms: N7_1857  and  C7_1858 
DOCKED: REMARK    6  A    between atoms: C7_1858  and  C70_1883 
DOCKED: REMARK    7  A    between atoms: C31_1869  and  C32_1870 
DOCKED: REMARK    8  A    between atoms: C61_1876  and  C62_1877 
DOCKED: USER                              x       y       z     vdW  Elec       q    Type
DOCKED: USER                           _______ _______ _______ _____ _____    ______ ____
DOCKED: ROOT
DOCKED: ATOM      1  C1  XK2 A 263     -10.470  19.861  28.626+99.99 -1.76    +0.324 C 
DOCKED: ATOM      2  O1  XK2 A 263     -11.113  20.225  27.653+40.43 +1.33    -0.247 OA
DOCKED: ATOM      3  N2  XK2 A 263      -9.136  19.625  28.445+99.99 +1.13    -0.298 N 
DOCKED: ATOM      4  C3  XK2 A 263      -8.363  18.626  29.213+99.99 -0.14    +0.123 C 
DOCKED: ATOM      5  C4  XK2 A 263      -8.158  18.897  30.698 +6.70 -0.25    +0.205 C 
DOCKED: ATOM      6  O4  XK2 A 263      -7.139  18.003  31.048+99.99 +0.09    -0.219 OA
DOCKED: ATOM      7  C5  XK2 A 263      -9.434  18.693  31.503+18.66 -0.20    +0.205 C 
DOCKED: ATOM      8  O5  XK2 A 263      -9.196  18.808  32.881+41.06 +0.10    -0.219 OA
DOCKED: ATOM      9  C6  XK2 A 263     -10.461  19.762  31.154+99.99 -0.28    +0.123 C 
DOCKED: ATOM     10  N7  XK2 A 263     -11.105  19.700  29.831+99.99 +1.53    -0.298 N 
DOCKED: ENDROOT
DOCKED: BRANCH   3  11
DOCKED: ATOM     11  C2  XK2 A 263      -8.544  20.230  27.245+70.61 -0.27    +0.133 C 
DOCKED: BRANCH  11  12
DOCKED: ATOM     12  C20 XK2 A 263      -8.736  19.580  25.899+99.99 -0.00    +0.000 A 
DOCKED: ATOM     13  C21 XK2 A 263      -7.844  19.797  24.811+46.79 +0.00    -0.002 A 
DOCKED: ATOM     14  C22 XK2 A 263      -8.157  19.295  23.531+11.88 +0.00    -0.000 A 
DOCKED: ATOM     15  C23 XK2 A 263      -9.361  18.568  23.359+99.99 +0.00    -0.000 A 
DOCKED: ATOM     16  C24 XK2 A 263      -9.730  18.104  22.083+51.07 +0.00    -0.000 A 
DOCKED: ATOM     17  C28 XK2 A 263     -10.239  18.334  24.464+51.16 +0.00    -0.000 A 
DOCKED: ATOM     18  C25 XK2 A 263     -10.949  17.403  21.912+99.99 +0.00    -0.000 A 
DOCKED: ATOM     19  C26 XK2 A 263     -11.809  17.157  22.988+37.58 +0.00    -0.000 A 
DOCKED: ATOM     20  C27 XK2 A 263     -11.453  17.624  24.272+31.60 +0.00    -0.000 A 
DOCKED: ATOM     21  C29 XK2 A 263      -9.925  18.838  25.736+99.99 +0.00    -0.002 A 
DOCKED: ENDBRANCH  11  12
DOCKED: ENDBRANCH   3  11
DOCKED: BRANCH   4  22
DOCKED: ATOM     22  C31 XK2 A 263      -8.856  17.192  28.832+99.99 +0.01    +0.051 C 
DOCKED: BRANCH  22  23
DOCKED: ATOM     23  C32 XK2 A 263      -7.751  16.152  28.983+99.99 +0.00    -0.020 A 
DOCKED: ATOM     24  C37 XK2 A 263      -6.792  15.981  27.952+99.99 +0.00    -0.004 A 
DOCKED: ATOM     25  C36 XK2 A 263      -5.847  14.939  28.036+99.99 -0.00    -0.000 A 
DOCKED: ATOM     26  C35 XK2 A 263      -5.859  14.060  29.147+99.99 -0.00    -0.000 A 
DOCKED: ATOM     27  C34 XK2 A 263      -6.798  14.221  30.186+74.90 -0.00    -0.000 A 
DOCKED: ATOM     28  C33 XK2 A 263      -7.742  15.277  30.108+99.99 +0.00    -0.004 A 
DOCKED: ENDBRANCH  22  23
DOCKED: ENDBRANCH   4  22
DOCKED: BRANCH  10  29
DOCKED: ATOM     29  C7  XK2 A 263     -12.569  19.636  29.817+99.99 -0.43    +0.133 C 
DOCKED: BRANCH  29  30
DOCKED: ATOM     30  C70 XK2 A 263     -13.259  18.465  29.159+99.99 -0.00    +0.000 A 
DOCKED: ATOM     31  C71 XK2 A 263     -14.158  18.814  28.134+61.08 +0.00    -0.002 A 
DOCKED: ATOM     32  C72 XK2 A 263     -14.727  17.805  27.361+22.57 +0.00    -0.000 A 
DOCKED: ATOM     33  C73 XK2 A 263     -15.658  18.155  26.344+11.73 +0.00    -0.000 A 
DOCKED: ATOM     34  C77 XK2 A 263     -14.392  16.437  27.623 +4.90 +0.00    -0.000 A 
DOCKED: ATOM     35  C74 XK2 A 263     -16.280  17.133  25.586 +2.14 +0.00    -0.000 A 
DOCKED: ATOM     36  C75 XK2 A 263     -15.947  15.781  25.844+68.81 +0.00    -0.000 A 
DOCKED: ATOM     37  C76 XK2 A 263     -15.008  15.424  26.847 +5.81 +0.00    -0.000 A 
DOCKED: ATOM     38  C78 XK2 A 263     -13.493  16.093  28.666+65.78 +0.00    -0.000 A 
DOCKED: ATOM     39  C79 XK2 A 263     -12.934  17.113  29.440+56.86 +0.00    -0.002 A 
DOCKED: ENDBRANCH  29  30
DOCKED: ENDBRANCH  10  29
DOCKED: BRANCH   9  40
DOCKED: ATOM     40  C61 XK2 A 263     -10.043  21.228  31.408+99.99 -0.09    +0.051 C 
DOCKED: BRANCH  40  41
DOCKED: ATOM     41  C62 XK2 A 263      -8.598  21.466  31.022+99.99 +0.04    -0.020 A 
DOCKED: ATOM     42  C67 XK2 A 263      -7.936  20.500  30.228+99.99 +0.01    -0.004 A 
DOCKED: ATOM     43  C66 XK2 A 263      -6.590  20.701  29.846+45.85 +0.00    -0.000 A 
DOCKED: ATOM     44  C65 XK2 A 263      -5.923  21.871  30.258+38.73 +0.00    -0.000 A 
DOCKED: ATOM     45  C64 XK2 A 263      -6.582  22.847  31.058+14.49 +0.00    -0.000 A 
DOCKED: ATOM     46  C63 XK2 A 263      -7.927  22.644  31.445+18.72 +0.00    -0.004 A 
DOCKED: ENDBRANCH  40  41
DOCKED: ENDBRANCH   9  40
DOCKED: TORSDOF 8
DOCKED: TER
DOCKED: ENDMDL
________________________________________________________________________________


	BEGINNING GENETIC ALGORITHM DOCKING 3 of 10
Run: 3 Seed: 383252645 2028599218 [ Run 3 of 10 GA/GALS ]
Beginning LAMARCKIAN GENETIC ALGORITHM (LGA), with a maximum of 2500000 energy evaluations.

Final-Value: 4307.084


	FINAL GENETIC ALGORITHM DOCKED STATE
	_______________________________________________


Detailed state:  trans -13.418 16.813 28.049 quatxyzw 0.748722 0.019563 0.346828 -0.564573 center -9.192 15.906 27.947 ntor 8 -119.4895 -70.1708 122.6905 -142.1563 -152.8059 156.2386 173.6362 -176.6910
State:	-13.418  16.813  28.049   0.907  0.024  0.420 -111.255   -119.49  -70.17  122.69 -142.16 -152.81  156.24  173.64 -176.69

DOCKED: MODEL        3
DOCKED: USER    Run = 3
DOCKED: USER    DPF = config.dpf
DOCKED: USER  
DOCKED: USER    Estimated Free Energy of Binding    =   +4.31e+03 kcal/mol  [=(1)+(2)+(3)-(4)]
DOCKED: USER    
DOCKED: USER    (1) Final Intermolecular Energy     =   +4.22e+03 kcal/mol
DOCKED: USER        vdW + Hbond + desolv Energy     =   +4.22e+03 kcal/mol
DOCKED: USER        Electrostatic Energy            =   +0.00 kcal/mol
DOCKED: USER    (2) Final Total Internal Energy     =  +89.90 kcal/mol
DOCKED: USER    (3) Torsional Free Energy           =   +2.39 kcal/mol
DOCKED: USER    (4) Unbound System's Energy         =   -2.72 kcal/mol
DOCKED: USER    
DOCKED: USER    
DOCKED: USER    NEWDPF move ligand.pdbqt
DOCKED: USER    NEWDPF about -9.192000 15.906000 27.947000
DOCKED: USER    NEWDPF tran0 -13.417957 16.813392 28.049330
DOCKED: USER    NEWDPF quaternion0 0.748722 0.019563 0.346828 -0.564573
DOCKED: USER    NEWDPF axisangle0 0.907121 0.023701 0.420202 -111.254646
DOCKED: USER    NEWDPF quat0 0.907121 0.023701 0.420202 -111.254646
DOCKED: USER    NEWDPF dihe0 -119.49 -70.17 122.69 -142.16 -152.81 156.24 173.64 -176.69 
DOCKED: USER  keepresnum = 1 
DOCKED: USER  
DOCKED: REMARK  8 active torsions:
DOCKED: REMARK  status: ('A' for Active; 'I' for Inactive)
DOCKED: REMARK    1  A    between atoms: N2_1849  and  C2_1850 
DOCKED: REMARK    2  A    between atoms: C2_1850  and  C20_1859 
DOCKED: REMARK    3  A    between atoms: C3_1851  and  C31_1869 
DOCKED: REMARK    4  A    between atoms: C6_1856  and  C61_1876 
DOCKED: REMARK    5  A    between atoms: N7_1857  and  C7_1858 
DOCKED: REMARK    6  A    between atoms: C7_1858  and  C70_1883 
DOCKED: REMARK    7  A    between atoms: C31_1869  and  C32_1870 
DOCKED: REMARK    8  A    between atoms: C61_1876  and  C62_1877 
DOCKED: USER                              x       y       z     vdW  Elec       q    Type
DOCKED: USER                           _______ _______ _______ _____ _____    ______ ____
DOCKED: ROOT
DOCKED: ATOM      1  C1  XK2 A 263     -12.667  17.358  27.611+99.99 -1.10    +0.324 C 
DOCKED: ATOM      2  O1  XK2 A 263     -11.794  18.021  27.069+99.99 +0.95    -0.247 OA
DOCKED: ATOM      3  N2  XK2 A 263     -13.434  17.982  28.554+18.18 +0.73    -0.298 N 
DOCKED: ATOM      4  C3  XK2 A 263     -14.033  17.294  29.717+94.56 -0.14    +0.123 C 
DOCKED: ATOM      5  C4  XK2 A 263     -15.130  16.276  29.434+99.99 -0.07    +0.205 C 
DOCKED: ATOM      6  O4  XK2 A 263     -15.711  16.074  30.692 +1.60 -0.05    -0.219 OA
DOCKED: ATOM      7  C5  XK2 A 263     -14.585  14.996  28.816+85.41 -0.04    +0.205 C 
DOCKED: ATOM      8  O5  XK2 A 263     -15.584  14.019  28.692 -0.02 -0.03    -0.219 OA
DOCKED: ATOM      9  C6  XK2 A 263     -14.068  15.262  27.408 +6.37 -0.07    +0.123 C 
DOCKED: ATOM     10  N7  XK2 A 263     -12.828  16.042  27.261+99.99 +0.33    -0.298 N 
DOCKED: ENDROOT
DOCKED: BRANCH   3  11
DOCKED: ATOM     11  C2  XK2 A 263     -13.421  19.450  28.512+99.99 -0.42    +0.133 C 
DOCKED: BRANCH  11  12
DOCKED: ATOM     12  C20 XK2 A 263     -12.114  20.189  28.383+99.99 -0.00    +0.000 A 
DOCKED: ATOM     13  C21 XK2 A 263     -12.036  21.527  27.904+99.99 +0.01    -0.002 A 
DOCKED: ATOM     14  C22 XK2 A 263     -10.780  22.114  27.651+99.99 +0.00    -0.000 A 
DOCKED: ATOM     15  C23 XK2 A 263      -9.609  21.352  27.892+99.92 +0.00    -0.000 A 
DOCKED: ATOM     16  C24 XK2 A 263      -8.343  21.889  27.594+35.72 +0.00    -0.000 A 
DOCKED: ATOM     17  C28 XK2 A 263      -9.696  20.017  28.396+99.99 +0.00    -0.000 A 
DOCKED: ATOM     18  C25 XK2 A 263      -7.179  21.112  27.810+73.99 +0.00    -0.000 A 
DOCKED: ATOM     19  C26 XK2 A 263      -7.252  19.809  28.315+46.75 +0.00    -0.000 A 
DOCKED: ATOM     20  C27 XK2 A 263      -8.517  19.257  28.610+99.99 +0.00    -0.000 A 
DOCKED: ATOM     21  C29 XK2 A 263     -10.950  19.435  28.644+99.99 +0.01    -0.002 A 
DOCKED: ENDBRANCH  11  12
DOCKED: ENDBRANCH   3  11
DOCKED: BRANCH   4  22
DOCKED: ATOM     22  C31 XK2 A 263     -12.893  16.832  30.684+37.58 -0.05    +0.051 C 
DOCKED: BRANCH  22  23
DOCKED: ATOM     23  C32 XK2 A 263     -13.405  15.866  31.746 +9.66 +0.01    -0.020 A 
DOCKED: ATOM     24  C37 XK2 A 263     -14.639  16.119  32.399+12.05 +0.00    -0.004 A 
DOCKED: ATOM     25  C36 XK2 A 263     -15.053  15.295  33.466 +3.66 +0.00    -0.000 A 
DOCKED: ATOM     26  C35 XK2 A 263     -14.233  14.218  33.888 +0.66 +0.00    -0.000 A 
DOCKED: ATOM     27  C34 XK2 A 263     -13.009  13.946  33.243 +4.32 +0.00    -0.000 A 
DOCKED: ATOM     28  C33 XK2 A 263     -12.599  14.768  32.162+10.02 +0.00    -0.004 A 
DOCKED: ENDBRANCH  22  23
DOCKED: ENDBRANCH   4  22
DOCKED: BRANCH  10  29
DOCKED: ATOM     29  C7  XK2 A 263     -11.737  15.405  26.518+99.99 -0.06    +0.133 C 
DOCKED: BRANCH  29  30
DOCKED: ATOM     30  C70 XK2 A 263     -10.993  16.190  25.464+39.67 -0.00    +0.000 A 
DOCKED: ATOM     31  C71 XK2 A 263     -11.707  16.389  24.268+23.43 +0.00    -0.002 A 
DOCKED: ATOM     32  C72 XK2 A 263     -11.175  17.231  23.294+99.99 +0.00    -0.000 A 
DOCKED: ATOM     33  C73 XK2 A 263     -11.882  17.409  22.073+20.37 +0.00    -0.000 A 
DOCKED: ATOM     34  C77 XK2 A 263      -9.915  17.872  23.524+65.91 +0.00    -0.000 A 
DOCKED: ATOM     35  C74 XK2 A 263     -11.325  18.224  21.057+99.99 +0.00    -0.000 A 
DOCKED: ATOM     36  C75 XK2 A 263     -10.079  18.859  21.286+45.19 -0.00    -0.000 A 
DOCKED: ATOM     37  C76 XK2 A 263      -9.375  18.697  22.507+96.11 -0.00    -0.000 A 
DOCKED: ATOM     38  C78 XK2 A 263      -9.196  17.657  24.729+35.98 +0.00    -0.000 A 
DOCKED: ATOM     39  C79 XK2 A 263      -9.736  16.805  25.696+99.99 +0.00    -0.002 A 
DOCKED: ENDBRANCH  29  30
DOCKED: ENDBRANCH  10  29
DOCKED: BRANCH   9  40
DOCKED: ATOM     40  C61 XK2 A 263     -15.093  15.807  26.389+37.11 -0.03    +0.051 C 
DOCKED: BRANCH  40  41
DOCKED: ATOM     41  C62 XK2 A 263     -15.568  17.195  26.771+20.14 +0.02    -0.020 A 
DOCKED: ATOM     42  C67 XK2 A 263     -16.511  17.846  25.942 +6.06 +0.00    -0.004 A 
DOCKED: ATOM     43  C66 XK2 A 263     -16.977  19.137  26.279+28.65 +0.00    -0.000 A 
DOCKED: ATOM     44  C65 XK2 A 263     -16.498  19.760  27.447 +7.63 +0.00    -0.000 A 
DOCKED: ATOM     45  C64 XK2 A 263     -15.547  19.112  28.287+61.32 +0.00    -0.000 A 
DOCKED: ATOM     46  C63 XK2 A 263     -15.077  17.822  27.946+33.73 +0.00    -0.004 A 
DOCKED: ENDBRANCH  40  41
DOCKED: ENDBRANCH   9  40
DOCKED: TORSDOF 8
DOCKED: TER
DOCKED: ENDMDL
________________________________________________________________________________


	BEGINNING GENETIC ALGORITHM DOCKING 4 of 10
Run: 4 Seed: 228625570 824785208 [ Run 4 of 10 GA/GALS ]
Beginning LAMARCKIAN GENETIC ALGORITHM (LGA), with a maximum of 2500000 energy evaluations.

Final-Value: 6951.913


	FINAL GENETIC ALGORITHM DOCKED STATE
	_______________________________________________


Detailed state:  trans -7.634 20.215 26.791 quatxyzw 0.301183 -0.949763 -0.073172 0.043418 center -9.192 15.906 27.947 ntor 8 -61.2372 -26.7536 85.0693 -171.4657 105.8348 -159.6983 26.2775 -78.4065
State:	 -7.634  20.215  26.791   0.301 -0.951 -0.073 175.023    -61.24  -26.75   85.07 -171.47  105.83 -159.70   26.28  -78.41

DOCKED: MODEL        4
DOCKED: USER    Run = 4
DOCKED: USER    DPF = config.dpf
DOCKED: USER  
DOCKED: USER    Estimated Free Energy of Binding    =   +6.96e+03 kcal/mol  [=(1)+(2)+(3)-(4)]
DOCKED: USER    
DOCKED: USER    (1) Final Intermolecular Energy     =   +6.93e+03 kcal/mol
DOCKED: USER        vdW + Hbond + desolv Energy     =   +6.93e+03 kcal/mol
DOCKED: USER        Electrostatic Energy            =   -0.29 kcal/mol
DOCKED: USER    (2) Final Total Internal Energy     =  +24.19 kcal/mol
DOCKED: USER    (3) Torsional Free Energy           =   +2.39 kcal/mol
DOCKED: USER    (4) Unbound System's Energy         =   -2.72 kcal/mol
DOCKED: USER    
DOCKED: USER    
DOCKED: USER    NEWDPF move ligand.pdbqt
DOCKED: USER    NEWDPF about -9.192000 15.906000 27.947000
DOCKED: USER    NEWDPF tran0 -7.633688 20.214672 26.790930
DOCKED: USER    NEWDPF quaternion0 0.301183 -0.949763 -0.073172 0.043418
DOCKED: USER    NEWDPF axisangle0 0.301468 -0.950659 -0.073241 175.023125
DOCKED: USER    NEWDPF quat0 0.301468 -0.950659 -0.073241 175.023125
DOCKED: USER    NEWDPF dihe0 -61.24 -26.75 85.07 -171.47 105.83 -159.70 26.28 -78.41 
DOCKED: USER  keepresnum = 1 
DOCKED: USER  
DOCKED: REMARK  8 active torsions:
DOCKED: REMARK  status: ('A' for Active; 'I' for Inactive)
DOCKED: REMARK    1  A    between atoms: N2_1849  and  C2_1850 
DOCKED: REMARK    2  A    between atoms: C2_1850  and  C20_1859 
DOCKED: REMARK    3  A    between atoms: C3_1851  and  C31_1869 
DOCKED: REMARK    4  A    between atoms: C6_1856  and  C61_1876 
DOCKED: REMARK    5  A    between atoms: N7_1857  and  C7_1858 
DOCKED: REMARK    6  A    between atoms: C7_1858  and  C70_1883 
DOCKED: REMARK    7  A    between atoms: C31_1869  and  C32_1870 
DOCKED: REMARK    8  A    between atoms: C61_1876  and  C62_1877 
DOCKED: USER                              x       y       z     vdW  Elec       q    Type
DOCKED: USER                           _______ _______ _______ _____ _____    ______ ____
DOCKED: ROOT
DOCKED: ATOM      1  C1  XK2 A 263      -7.617  19.204  26.615+99.99 -0.20    +0.324 C 
DOCKED: ATOM      2  O1  XK2 A 263      -7.575  17.997  26.428+99.99 -0.03    -0.247 OA
DOCKED: ATOM      3  N2  XK2 A 263      -8.279  19.643  27.727+51.51 +0.51    -0.298 N 
DOCKED: ATOM      4  C3  XK2 A 263      -8.987  20.938  27.809+58.56 -0.38    +0.123 C 
DOCKED: ATOM      5  C4  XK2 A 263      -8.136  22.200  27.763+99.23 -0.23    +0.205 C 
DOCKED: ATOM      6  O4  XK2 A 263      -9.018  23.196  28.199 +3.02 +0.21    -0.219 OA
DOCKED: ATOM      7  C5  XK2 A 263      -7.575  22.467  26.373+99.99 -0.13    +0.205 C 
DOCKED: ATOM      8  O5  XK2 A 263      -6.914  23.703  26.315+99.99 +0.04    -0.219 OA
DOCKED: ATOM      9  C6  XK2 A 263      -6.543  21.410  26.002+28.28 -0.08    +0.123 C 
DOCKED: ATOM     10  N7  XK2 A 263      -7.020  20.047  25.714+72.74 +0.23    -0.298 N 
DOCKED: ENDROOT
DOCKED: BRANCH   3  11
DOCKED: ATOM     11  C2  XK2 A 263      -8.489  18.638  28.777+99.99 -0.14    +0.133 C 
DOCKED: BRANCH  11  12
DOCKED: ATOM     12  C20 XK2 A 263      -8.918  19.067  30.157+28.56 -0.00    +0.000 A 
DOCKED: ATOM     13  C21 XK2 A 263     -10.106  19.816  30.389+99.99 +0.01    -0.002 A 
DOCKED: ATOM     14  C22 XK2 A 263     -10.377  20.328  31.675+99.99 +0.00    -0.000 A 
DOCKED: ATOM     15  C23 XK2 A 263      -9.453  20.074  32.719+99.99 +0.00    -0.000 A 
DOCKED: ATOM     16  C24 XK2 A 263      -9.665  20.620  33.999+19.00 +0.00    -0.000 A 
DOCKED: ATOM     17  C28 XK2 A 263      -8.274  19.300  32.482+99.99 +0.00    -0.000 A 
DOCKED: ATOM     18  C25 XK2 A 263      -8.724  20.386  35.031+99.99 +0.00    -0.000 A 
DOCKED: ATOM     19  C26 XK2 A 263      -7.574  19.619  34.813 +2.85 +0.00    -0.000 A 
DOCKED: ATOM     20  C27 XK2 A 263      -7.346  19.072  33.531+30.44 +0.00    -0.000 A 
DOCKED: ATOM     21  C29 XK2 A 263      -8.007  18.793  31.199+11.16 +0.00    -0.002 A 
DOCKED: ENDBRANCH  11  12
DOCKED: ENDBRANCH   3  11
DOCKED: BRANCH   4  22
DOCKED: ATOM     22  C31 XK2 A 263     -10.229  20.904  26.859+99.99 -0.14    +0.051 C 
DOCKED: BRANCH  22  23
DOCKED: ATOM     23  C32 XK2 A 263     -11.319  21.870  27.313+99.99 +0.05    -0.020 A 
DOCKED: ATOM     24  C37 XK2 A 263     -11.019  22.882  28.261+40.77 +0.01    -0.004 A 
DOCKED: ATOM     25  C36 XK2 A 263     -12.051  23.694  28.773+99.99 +0.00    -0.000 A 
DOCKED: ATOM     26  C35 XK2 A 263     -13.387  23.496  28.344+99.99 +0.00    -0.000 A 
DOCKED: ATOM     27  C34 XK2 A 263     -13.701  22.502  27.396+99.99 +0.00    -0.000 A 
DOCKED: ATOM     28  C33 XK2 A 263     -12.661  21.692  26.871+99.99 +0.01    -0.004 A 
DOCKED: ENDBRANCH  22  23
DOCKED: ENDBRANCH   4  22
DOCKED: BRANCH  10  29
DOCKED: ATOM     29  C7  XK2 A 263      -6.664  19.491  24.406+29.05 -0.06    +0.133 C 
DOCKED: BRANCH  29  30
DOCKED: ATOM     30  C70 XK2 A 263      -7.743  18.917  23.519 +0.48 -0.00    +0.000 A 
DOCKED: ATOM     31  C71 XK2 A 263      -8.835  18.360  24.210 +3.96 +0.00    -0.002 A 
DOCKED: ATOM     32  C72 XK2 A 263      -9.952  17.946  23.488+71.92 +0.00    -0.000 A 
DOCKED: ATOM     33  C73 XK2 A 263     -11.044  17.357  24.183+43.75 +0.00    -0.000 A 
DOCKED: ATOM     34  C77 XK2 A 263      -9.969  18.090  22.063+62.50 +0.00    -0.000 A 
DOCKED: ATOM     35  C74 XK2 A 263     -12.164  16.887  23.453+30.03 +0.00    -0.000 A 
DOCKED: ATOM     36  C75 XK2 A 263     -12.180  17.032  22.044+11.58 +0.00    -0.000 A 
DOCKED: ATOM     37  C76 XK2 A 263     -11.100  17.632  21.345+28.79 +0.00    -0.000 A 
DOCKED: ATOM     38  C78 XK2 A 263      -8.857  18.643  21.374+21.21 -0.00    -0.000 A 
DOCKED: ATOM     39  C79 XK2 A 263      -7.739  19.048  22.107+33.15 -0.00    -0.002 A 
DOCKED: ENDBRANCH  29  30
DOCKED: ENDBRANCH  10  29
DOCKED: BRANCH   9  40
DOCKED: ATOM     40  C61 XK2 A 263      -5.312  21.295  26.928+29.28 -0.00    +0.051 C 
DOCKED: BRANCH  40  41
DOCKED: ATOM     41  C62 XK2 A 263      -5.687  21.528  28.378+99.99 +0.01    -0.020 A 
DOCKED: ATOM     42  C67 XK2 A 263      -4.847  22.338  29.178+12.48 +0.00    -0.004 A 
DOCKED: ATOM     43  C66 XK2 A 263      -5.177  22.580  30.530+11.59 +0.00    -0.000 A 
DOCKED: ATOM     44  C65 XK2 A 263      -6.350  22.013  31.066+99.99 +0.00    -0.000 A 
DOCKED: ATOM     45  C64 XK2 A 263      -7.200  21.195  30.268+11.76 +0.00    -0.000 A 
DOCKED: ATOM     46  C63 XK2 A 263      -6.866  20.949  28.916 +5.37 +0.00    -0.004 A 
DOCKED: ENDBRANCH  40  41
DOCKED: ENDBRANCH   9  40
DOCKED: TORSDOF 8
DOCKED: TER
DOCKED: ENDMDL
________________________________________________________________________________


	BEGINNING GENETIC ALGORITHM DOCKING 5 of 10
Run: 5 Seed: 1961169721 1806598770 [ Run 5 of 10 GA/GALS ]
Beginning LAMARCKIAN GENETIC ALGORITHM (LGA), with a maximum of 2500000 energy evaluations.

Final-Value: 2442.908


	FINAL GENETIC ALGORITHM DOCKED STATE
	_______________________________________________


Detailed state:  trans -13.410 17.938 24.889 quatxyzw 0.331788 0.205451 0.756557 -0.524717 center -9.192 15.906 27.947 ntor 8 147.3238 120.5139 157.4025 43.5165 122.8929 32.3376 -179.9064 152.6346
State:	-13.410  17.938  24.889   0.390  0.241  0.889 -116.702    147.32  120.51  157.40   43.52  122.89   32.34 -179.91  152.63

DOCKED: MODEL        5
DOCKED: USER    Run = 5
DOCKED: USER    DPF = config.dpf
DOCKED: USER  
DOCKED: USER    Estimated Free Energy of Binding    =   +2.45e+03 kcal/mol  [=(1)+(2)+(3)-(4)]
DOCKED: USER    
DOCKED: USER    (1) Final Intermolecular Energy     =   +2.41e+03 kcal/mol
DOCKED: USER        vdW + Hbond + desolv Energy     =   +2.41e+03 kcal/mol
DOCKED: USER        Electrostatic Energy            =   -0.13 kcal/mol
DOCKED: USER    (2) Final Total Internal Energy     =  +34.96 kcal/mol
DOCKED: USER    (3) Torsional Free Energy           =   +2.39 kcal/mol
DOCKED: USER    (4) Unbound System's Energy         =   -2.72 kcal/mol
DOCKED: USER    
DOCKED: USER    
DOCKED: USER    NEWDPF move ligand.pdbqt
DOCKED: USER    NEWDPF about -9.192000 15.906000 27.947000
DOCKED: USER    NEWDPF tran0 -13.409814 17.937623 24.889215
DOCKED: USER    NEWDPF quaternion0 0.331788 0.205451 0.756557 -0.524717
DOCKED: USER    NEWDPF axisangle0 0.389754 0.241344 0.888732 -116.701576
DOCKED: USER    NEWDPF quat0 0.389754 0.241344 0.888732 -116.701576
DOCKED: USER    NEWDPF dihe0 147.32 120.51 157.40 43.52 122.89 32.34 -179.91 152.63 
DOCKED: USER  keepresnum = 1 
DOCKED: USER  
DOCKED: REMARK  8 active torsions:
DOCKED: REMARK  status: ('A' for Active; 'I' for Inactive)
DOCKED: REMARK    1  A    between atoms: N2_1849  and  C2_1850 
DOCKED: REMARK    2  A    between atoms: C2_1850  and  C20_1859 
DOCKED: REMARK    3  A    between atoms: C3_1851  and  C31_1869 
DOCKED: REMARK    4  A    between atoms: C6_1856  and  C61_1876 
DOCKED: REMARK    5  A    between atoms: N7_1857  and  C7_1858 
DOCKED: REMARK    6  A    between atoms: C7_1858  and  C70_1883 
DOCKED: REMARK    7  A    between atoms: C31_1869  and  C32_1870 
DOCKED: REMARK    8  A    between atoms: C61_1876  and  C62_1877 
DOCKED: USER                              x       y       z     vdW  Elec       q    Type
DOCKED: USER                           _______ _______ _______ _____ _____    ______ ____
DOCKED: ROOT
DOCKED: ATOM      1  C1  XK2 A 263     -12.982  18.787  24.503+92.85 -0.62    +0.324 C 
DOCKED: ATOM      2  O1  XK2 A 263     -12.473  19.785  24.013+99.99 +0.28    -0.247 OA
DOCKED: ATOM      3  N2  XK2 A 263     -14.336  18.650  24.385+99.99 +0.28    -0.298 N 
DOCKED: ATOM      4  C3  XK2 A 263     -15.186  17.957  25.377+28.05 -0.14    +0.123 C 
DOCKED: ATOM      5  C4  XK2 A 263     -15.002  16.452  25.519+99.99 -0.17    +0.205 C 
DOCKED: ATOM      6  O4  XK2 A 263     -16.137  16.058  26.238 +1.70 +0.08    -0.219 OA
DOCKED: ATOM      7  C5  XK2 A 263     -13.699  16.093  26.218+12.27 -0.29    +0.205 C 
DOCKED: ATOM      8  O5  XK2 A 263     -13.611  14.715  26.467 +9.13 +0.10    -0.219 OA
DOCKED: ATOM      9  C6  XK2 A 263     -12.506  16.447  25.339 +4.77 -0.18    +0.123 C 
DOCKED: ATOM     10  N7  XK2 A 263     -12.187  17.871  25.144+65.53 +0.89    -0.298 N 
DOCKED: ENDROOT
DOCKED: BRANCH   3  11
DOCKED: ATOM     11  C2  XK2 A 263     -14.967  19.469  23.341+28.01 -0.08    +0.133 C 
DOCKED: BRANCH  11  12
DOCKED: ATOM     12  C20 XK2 A 263     -14.508  20.886  23.115+50.06 -0.00    +0.000 A 
DOCKED: ATOM     13  C21 XK2 A 263     -13.279  21.198  22.469+76.76 +0.00    -0.002 A 
DOCKED: ATOM     14  C22 XK2 A 263     -12.823  22.532  22.426+24.03 +0.00    -0.000 A 
DOCKED: ATOM     15  C23 XK2 A 263     -13.613  23.543  23.027+38.88 +0.00    -0.000 A 
DOCKED: ATOM     16  C24 XK2 A 263     -13.157  24.874  23.052 +5.08 -0.00    -0.000 A 
DOCKED: ATOM     17  C28 XK2 A 263     -14.859  23.224  23.653+99.99 +0.00    -0.000 A 
DOCKED: ATOM     18  C25 XK2 A 263     -13.938  25.876  23.679 +5.86 -0.00    -0.000 A 
DOCKED: ATOM     19  C26 XK2 A 263     -15.165  25.576  24.283+30.67 -0.00    -0.000 A 
DOCKED: ATOM     20  C27 XK2 A 263     -15.629  24.243  24.271+86.71 +0.00    -0.000 A 
DOCKED: ATOM     21  C29 XK2 A 263     -15.308  21.894  23.695+99.99 +0.00    -0.002 A 
DOCKED: ENDBRANCH  11  12
DOCKED: ENDBRANCH   3  11
DOCKED: BRANCH   4  22
DOCKED: ATOM     22  C31 XK2 A 263     -15.200  18.782  26.705+99.99 -0.07    +0.051 C 
DOCKED: BRANCH  22  23
DOCKED: ATOM     23  C32 XK2 A 263     -14.969  17.898  27.926+20.48 +0.03    -0.020 A 
DOCKED: ATOM     24  C37 XK2 A 263     -15.764  18.072  29.088+99.99 +0.00    -0.004 A 
DOCKED: ATOM     25  C36 XK2 A 263     -15.471  17.341  30.257+87.25 +0.00    -0.000 A 
DOCKED: ATOM     26  C35 XK2 A 263     -14.380  16.437  30.272+48.53 +0.00    -0.000 A 
DOCKED: ATOM     27  C34 XK2 A 263     -13.586  16.244  29.123+40.35 +0.00    -0.000 A 
DOCKED: ATOM     28  C33 XK2 A 263     -13.888  16.970  27.943 +6.54 +0.01    -0.004 A 
DOCKED: ENDBRANCH  22  23
DOCKED: ENDBRANCH   4  22
DOCKED: BRANCH  10  29
DOCKED: ATOM     29  C7  XK2 A 263     -10.834  18.296  25.511+52.99 -0.22    +0.133 C 
DOCKED: BRANCH  29  30
DOCKED: ATOM     30  C70 XK2 A 263      -9.808  18.541  24.430+34.80 -0.00    +0.000 A 
DOCKED: ATOM     31  C71 XK2 A 263      -8.702  19.310  24.835+11.01 +0.00    -0.002 A 
DOCKED: ATOM     32  C72 XK2 A 263      -7.627  19.462  23.961 +2.69 +0.00    -0.000 A 
DOCKED: ATOM     33  C73 XK2 A 263      -6.521  20.263  24.359+10.26 +0.00    -0.000 A 
DOCKED: ATOM     34  C77 XK2 A 263      -7.668  18.838  22.672 +2.40 +0.00    -0.000 A 
DOCKED: ATOM     35  C74 XK2 A 263      -5.446  20.464  23.458 +7.86 -0.00    -0.000 A 
DOCKED: ATOM     36  C75 XK2 A 263      -5.487  19.845  22.184 +2.81 +0.00    -0.000 A 
DOCKED: ATOM     37  C76 XK2 A 263      -6.581  19.033  21.786 +0.50 +0.00    -0.000 A 
DOCKED: ATOM     38  C78 XK2 A 263      -8.794  18.073  22.268+46.08 +0.00    -0.000 A 
DOCKED: ATOM     39  C79 XK2 A 263      -9.869  17.934  23.149+66.21 +0.00    -0.002 A 
DOCKED: ENDBRANCH  29  30
DOCKED: ENDBRANCH  10  29
DOCKED: BRANCH   9  40
DOCKED: ATOM     40  C61 XK2 A 263     -12.438  15.754  23.959+59.25 -0.02    +0.051 C 
DOCKED: BRANCH  40  41
DOCKED: ATOM     41  C62 XK2 A 263     -11.335  14.717  23.915+86.51 +0.00    -0.020 A 
DOCKED: ATOM     42  C67 XK2 A 263     -10.694  14.350  25.121+43.13 +0.00    -0.004 A 
DOCKED: ATOM     43  C66 XK2 A 263      -9.668  13.379  25.109+24.50 +0.00    -0.000 A 
DOCKED: ATOM     44  C65 XK2 A 263      -9.299  12.779  23.889+53.51 -0.00    -0.000 A 
DOCKED: ATOM     45  C64 XK2 A 263      -9.938  13.144  22.670 +1.39 +0.00    -0.000 A 
DOCKED: ATOM     46  C63 XK2 A 263     -10.962  14.120  22.681+40.22 +0.00    -0.004 A 
DOCKED: ENDBRANCH  40  41
DOCKED: ENDBRANCH   9  40
DOCKED: TORSDOF 8
DOCKED: TER
DOCKED: ENDMDL
________________________________________________________________________________


	BEGINNING GENETIC ALGORITHM DOCKING 6 of 10
Run: 6 Seed: 268407847 1587934608 [ Run 6 of 10 GA/GALS ]
Beginning LAMARCKIAN GENETIC ALGORITHM (LGA), with a maximum of 2500000 energy evaluations.

Final-Value: 4439.109


	FINAL GENETIC ALGORITHM DOCKED STATE
	_______________________________________________


Detailed state:  trans -8.933 20.911 29.820 quatxyzw 0.394925 0.032090 -0.668706 0.629156 center -9.192 15.906 27.947 ntor 8 60.5637 179.8177 -60.6073 8.5268 -83.7595 162.8023 88.6314 41.4902
State:	 -8.933  20.911  29.820   0.508  0.041 -0.860 102.024     60.56  179.82  -60.61    8.53  -83.76  162.80   88.63   41.49

DOCKED: MODEL        6
DOCKED: USER    Run = 6
DOCKED: USER    DPF = config.dpf
DOCKED: USER  
DOCKED: USER    Estimated Free Energy of Binding    =   +4.44e+03 kcal/mol  [=(1)+(2)+(3)-(4)]
DOCKED: USER    
DOCKED: USER    (1) Final Intermolecular Energy     =   +4.40e+03 kcal/mol
DOCKED: USER        vdW + Hbond + desolv Energy     =   +4.40e+03 kcal/mol
DOCKED: USER        Electrostatic Energy            =   -0.55 kcal/mol
DOCKED: USER    (2) Final Total Internal Energy     =  +42.53 kcal/mol
DOCKED: USER    (3) Torsional Free Energy           =   +2.39 kcal/mol
DOCKED: USER    (4) Unbound System's Energy         =   -2.72 kcal/mol
DOCKED: USER    
DOCKED: USER    
DOCKED: USER    NEWDPF move ligand.pdbqt
DOCKED: USER    NEWDPF about -9.192000 15.906000 27.947000
DOCKED: USER    NEWDPF tran0 -8.933021 20.910656 29.820414
DOCKED: USER    NEWDPF quaternion0 0.394925 0.032090 -0.668706 0.629156
DOCKED: USER    NEWDPF axisangle0 0.508086 0.041285 -0.860316 102.024236
DOCKED: USER    NEWDPF quat0 0.508086 0.041285 -0.860316 102.024236
DOCKED: USER    NEWDPF dihe0 60.56 179.82 -60.61 8.53 -83.76 162.80 88.63 41.49 
DOCKED: USER  keepresnum = 1 
DOCKED: USER  
DOCKED: REMARK  8 active torsions:
DOCKED: REMARK  status: ('A' for Active; 'I' for Inactive)
DOCKED: REMARK    1  A    between atoms: N2_1849  and  C2_1850 
DOCKED: REMARK    2  A    between atoms: C2_1850  and  C20_1859 
DOCKED: REMARK    3  A    between atoms: C3_1851  and  C31_1869 
DOCKED: REMARK    4  A    between atoms: C6_1856  and  C61_1876 
DOCKED: REMARK    5  A    between atoms: N7_1857  and  C7_1858 
DOCKED: REMARK    6  A    between atoms: C7_1858  and  C70_1883 
DOCKED: REMARK    7  A    between atoms: C31_1869  and  C32_1870 
DOCKED: REMARK    8  A    between atoms: C61_1876  and  C62_1877 
DOCKED: USER                              x       y       z     vdW  Elec       q    Type
DOCKED: USER                           _______ _______ _______ _____ _____    ______ ____
DOCKED: ROOT
DOCKED: ATOM      1  C1  XK2 A 263      -8.186  21.592  29.999+99.99 -1.02    +0.324 C 
DOCKED: ATOM      2  O1  XK2 A 263      -7.276  22.379  30.213 -0.28 +0.21    -0.247 OA
DOCKED: ATOM      3  N2  XK2 A 263      -8.279  21.068  28.740+99.99 +1.21    -0.298 N 
DOCKED: ATOM      4  C3  XK2 A 263      -9.552  20.670  28.103+99.99 -0.58    +0.123 C 
DOCKED: ATOM      5  C4  XK2 A 263     -10.286  19.477  28.702+99.99 -0.87    +0.205 C 
DOCKED: ATOM      6  O4  XK2 A 263     -11.218  19.146  27.711+99.99 +0.93    -0.219 OA
DOCKED: ATOM      7  C5  XK2 A 263     -10.931  19.809  30.040+99.99 -1.02    +0.205 C 
DOCKED: ATOM      8  O5  XK2 A 263     -11.718  18.747  30.508+65.85 +0.51    -0.219 OA
DOCKED: ATOM      9  C6  XK2 A 263      -9.864  20.052  31.100+99.99 -0.34    +0.123 C 
DOCKED: ATOM     10  N7  XK2 A 263      -9.062  21.284  31.007+99.99 +0.79    -0.298 N 
DOCKED: ENDROOT
DOCKED: BRANCH   3  11
DOCKED: ATOM     11  C2  XK2 A 263      -7.062  21.163  27.923+99.99 -0.13    +0.133 C 
DOCKED: BRANCH  11  12
DOCKED: ATOM     12  C20 XK2 A 263      -7.140  21.685  26.512+99.99 -0.00    +0.000 A 
DOCKED: ATOM     13  C21 XK2 A 263      -6.520  21.021  25.416+39.10 +0.00    -0.002 A 
DOCKED: ATOM     14  C22 XK2 A 263      -6.487  21.634  24.147+32.67 +0.00    -0.000 A 
DOCKED: ATOM     15  C23 XK2 A 263      -7.087  22.908  23.988+11.98 +0.00    -0.000 A 
DOCKED: ATOM     16  C24 XK2 A 263      -7.019  23.572  22.749+11.85 +0.00    -0.000 A 
DOCKED: ATOM     17  C28 XK2 A 263      -7.728  23.557  25.089 +8.14 +0.00    -0.000 A 
DOCKED: ATOM     18  C25 XK2 A 263      -7.596  24.857  22.605+32.68 -0.00    -0.000 A 
DOCKED: ATOM     19  C26 XK2 A 263      -8.237  25.496  23.672 +4.41 -0.00    -0.000 A 
DOCKED: ATOM     20  C27 XK2 A 263      -8.304  24.843  24.923 +3.76 +0.00    -0.000 A 
DOCKED: ATOM     21  C29 XK2 A 263      -7.757  22.944  26.353+99.99 +0.00    -0.002 A 
DOCKED: ENDBRANCH  11  12
DOCKED: ENDBRANCH   3  11
DOCKED: BRANCH   4  22
DOCKED: ATOM     22  C31 XK2 A 263     -10.411  21.948  27.832+99.99 -0.14    +0.051 C 
DOCKED: BRANCH  22  23
DOCKED: ATOM     23  C32 XK2 A 263      -9.624  23.228  28.092+28.08 +0.02    -0.020 A 
DOCKED: ATOM     24  C37 XK2 A 263      -9.721  24.316  27.186+24.04 +0.00    -0.004 A 
DOCKED: ATOM     25  C36 XK2 A 263      -8.902  25.450  27.359+17.29 +0.00    -0.000 A 
DOCKED: ATOM     26  C35 XK2 A 263      -7.978  25.499  28.432+46.64 +0.00    -0.000 A 
DOCKED: ATOM     27  C34 XK2 A 263      -7.876  24.432  29.347+52.92 +0.00    -0.000 A 
DOCKED: ATOM     28  C33 XK2 A 263      -8.709  23.296  29.181+36.91 +0.00    -0.004 A 
DOCKED: ENDBRANCH  22  23
DOCKED: ENDBRANCH   4  22
DOCKED: BRANCH  10  29
DOCKED: ATOM     29  C7  XK2 A 263      -9.076  22.164  32.179+59.05 -0.09    +0.133 C 
DOCKED: BRANCH  29  30
DOCKED: ATOM     30  C70 XK2 A 263     -10.023  21.875  33.319 +6.60 -0.00    +0.000 A 
DOCKED: ATOM     31  C71 XK2 A 263     -11.385  22.047  33.009+47.40 +0.00    -0.002 A 
DOCKED: ATOM     32  C72 XK2 A 263     -12.345  21.658  33.940+99.99 +0.00    -0.000 A 
DOCKED: ATOM     33  C73 XK2 A 263     -13.720  21.858  33.638+88.27 +0.00    -0.000 A 
DOCKED: ATOM     34  C77 XK2 A 263     -11.932  21.095  35.191+99.99 +0.00    -0.000 A 
DOCKED: ATOM     35  C74 XK2 A 263     -14.702  21.512  34.599+99.99 +0.00    -0.000 A 
DOCKED: ATOM     36  C75 XK2 A 263     -14.293  20.954  35.835+99.99 -0.00    -0.000 A 
DOCKED: ATOM     37  C76 XK2 A 263     -12.923  20.737  36.137+99.99 +0.00    -0.000 A 
DOCKED: ATOM     38  C78 XK2 A 263     -10.556  20.936  35.500+74.85 +0.00    -0.000 A 
DOCKED: ATOM     39  C79 XK2 A 263      -9.601  21.336  34.562+13.00 +0.00    -0.002 A 
DOCKED: ENDBRANCH  29  30
DOCKED: ENDBRANCH  10  29
DOCKED: BRANCH   9  40
DOCKED: ATOM     40  C61 XK2 A 263      -8.898  18.880  31.386 +4.00 -0.06    +0.051 C 
DOCKED: BRANCH  40  41
DOCKED: ATOM     41  C62 XK2 A 263      -8.539  18.805  32.856+26.92 +0.01    -0.020 A 
DOCKED: ATOM     42  C67 XK2 A 263      -9.532  18.406  33.781+80.38 +0.00    -0.004 A 
DOCKED: ATOM     43  C66 XK2 A 263      -9.222  18.319  35.157+60.83 +0.00    -0.000 A 
DOCKED: ATOM     44  C65 XK2 A 263      -7.918  18.626  35.592 +5.69 +0.00    -0.000 A 
DOCKED: ATOM     45  C64 XK2 A 263      -6.913  19.030  34.667+21.76 +0.00    -0.000 A 
DOCKED: ATOM     46  C63 XK2 A 263      -7.225  19.122  33.290+79.10 +0.00    -0.004 A 
DOCKED: ENDBRANCH  40  41
DOCKED: ENDBRANCH   9  40
DOCKED: TORSDOF 8
DOCKED: TER
DOCKED: ENDMDL
________________________________________________________________________________


	BEGINNING GENETIC ALGORITHM DOCKING 7 of 10
Run: 7 Seed: 704644063 288926825 [ Run 7 of 10 GA/GALS ]
Beginning LAMARCKIAN GENETIC ALGORITHM (LGA), with a maximum of 2500000 energy evaluations.

Final-Value: 5528.853


	FINAL GENETIC ALGORITHM DOCKED STATE
	_______________________________________________


Detailed state:  trans -13.193 18.250 26.968 quatxyzw 0.469884 -0.044979 0.860959 0.189566 center -9.192 15.906 27.947 ntor 8 -7.4570 83.4585 -6.0349 163.7368 175.1833 -47.3578 -169.1871 20.3148
State:	-13.193  18.250  26.968   0.479 -0.046  0.877 158.145     -7.46   83.46   -6.03  163.74  175.18  -47.36 -169.19   20.31

DOCKED: MODEL        7
DOCKED: USER    Run = 7
DOCKED: USER    DPF = config.dpf
DOCKED: USER  
DOCKED: USER    Estimated Free Energy of Binding    =   +5.53e+03 kcal/mol  [=(1)+(2)+(3)-(4)]
DOCKED: USER    
DOCKED: USER    (1) Final Intermolecular Energy     =   +5.50e+03 kcal/mol
DOCKED: USER        vdW + Hbond + desolv Energy     =   +5.50e+03 kcal/mol
DOCKED: USER        Electrostatic Energy            =   -0.31 kcal/mol
DOCKED: USER    (2) Final Total Internal Energy     =  +28.89 kcal/mol
DOCKED: USER    (3) Torsional Free Energy           =   +2.39 kcal/mol
DOCKED: USER    (4) Unbound System's Energy         =   -2.72 kcal/mol
DOCKED: USER    
DOCKED: USER    
DOCKED: USER    NEWDPF move ligand.pdbqt
DOCKED: USER    NEWDPF about -9.192000 15.906000 27.947000
DOCKED: USER    NEWDPF tran0 -13.192714 18.249607 26.968223
DOCKED: USER    NEWDPF quaternion0 0.469884 -0.044979 0.860959 0.189566
DOCKED: USER    NEWDPF axisangle0 0.478562 -0.045809 0.876858 158.145076
DOCKED: USER    NEWDPF quat0 0.478562 -0.045809 0.876858 158.145076
DOCKED: USER    NEWDPF dihe0 -7.46 83.46 -6.03 163.74 175.18 -47.36 -169.19 20.31 
DOCKED: USER  keepresnum = 1 
DOCKED: USER  
DOCKED: REMARK  8 active torsions:
DOCKED: REMARK  status: ('A' for Active; 'I' for Inactive)
DOCKED: REMARK    1  A    between atoms: N2_1849  and  C2_1850 
DOCKED: REMARK    2  A    between atoms: C2_1850  and  C20_1859 
DOCKED: REMARK    3  A    between atoms: C3_1851  and  C31_1869 
DOCKED: REMARK    4  A    between atoms: C6_1856  and  C61_1876 
DOCKED: REMARK    5  A    between atoms: N7_1857  and  C7_1858 
DOCKED: REMARK    6  A    between atoms: C7_1858  and  C70_1883 
DOCKED: REMARK    7  A    between atoms: C31_1869  and  C32_1870 
DOCKED: REMARK    8  A    between atoms: C61_1876  and  C62_1877 
DOCKED: USER                              x       y       z     vdW  Elec       q    Type
DOCKED: USER                           _______ _______ _______ _____ _____    ______ ____
DOCKED: ROOT
DOCKED: ATOM      1  C1  XK2 A 263     -13.710  18.818  27.649+99.99 -1.42    +0.324 C 
DOCKED: ATOM      2  O1  XK2 A 263     -14.338  19.512  28.435+99.99 +0.41    -0.247 OA
DOCKED: ATOM      3  N2  XK2 A 263     -14.404  17.859  26.965+99.99 +1.10    -0.298 N 
DOCKED: ATOM      4  C3  XK2 A 263     -13.820  16.578  26.518+46.90 -0.28    +0.123 C 
DOCKED: ATOM      5  C4  XK2 A 263     -12.752  16.641  25.433+20.66 -0.41    +0.205 C 
DOCKED: ATOM      6  O4  XK2 A 263     -12.661  15.313  24.998+99.99 +0.12    -0.219 OA
DOCKED: ATOM      7  C5  XK2 A 263     -11.432  17.190  25.954+29.77 -0.34    +0.205 C 
DOCKED: ATOM      8  O5  XK2 A 263     -10.423  17.110  24.983+35.15 +0.14    -0.219 OA
DOCKED: ATOM      9  C6  XK2 A 263     -11.570  18.665  26.309+99.99 -0.51    +0.123 C 
DOCKED: ATOM     10  N7  XK2 A 263     -12.362  19.021  27.498+99.99 +1.92    -0.298 N 
DOCKED: ENDROOT
DOCKED: BRANCH   3  11
DOCKED: ATOM     11  C2  XK2 A 263     -15.861  18.042  26.922+13.99 -0.11    +0.133 C 
DOCKED: BRANCH  11  12
DOCKED: ATOM     12  C20 XK2 A 263     -16.566  18.748  28.051+99.99 -0.00    +0.000 A 
DOCKED: ATOM     13  C21 XK2 A 263     -17.434  19.855  27.837+14.76 +0.00    -0.002 A 
DOCKED: ATOM     14  C22 XK2 A 263     -17.941  20.579  28.937 +7.09 +0.00    -0.000 A 
DOCKED: ATOM     15  C23 XK2 A 263     -17.575  20.175  30.245 +7.50 +0.00    -0.000 A 
DOCKED: ATOM     16  C24 XK2 A 263     -18.017  20.911  31.361+99.99 -0.00    -0.000 A 
DOCKED: ATOM     17  C28 XK2 A 263     -16.722  19.046  30.452+17.86 +0.00    -0.000 A 
DOCKED: ATOM     18  C25 XK2 A 263     -17.625  20.519  32.664+31.77 -0.00    -0.000 A 
DOCKED: ATOM     19  C26 XK2 A 263     -16.800  19.409  32.878 +4.29 -0.00    -0.000 A 
DOCKED: ATOM     20  C27 XK2 A 263     -16.345  18.667  31.766 +6.09 +0.00    -0.000 A 
DOCKED: ATOM     21  C29 XK2 A 263     -16.218  18.330  29.353+97.76 +0.00    -0.002 A 
DOCKED: ENDBRANCH  11  12
DOCKED: ENDBRANCH   3  11
DOCKED: BRANCH   4  22
DOCKED: ATOM     22  C31 XK2 A 263     -13.484  15.702  27.770+99.99 -0.04    +0.051 C 
DOCKED: BRANCH  22  23
DOCKED: ATOM     23  C32 XK2 A 263     -14.737  15.332  28.557+14.89 +0.01    -0.020 A 
DOCKED: ATOM     24  C37 XK2 A 263     -15.682  14.431  28.002 +3.28 +0.00    -0.004 A 
DOCKED: ATOM     25  C36 XK2 A 263     -16.897  14.184  28.673+31.70 -0.00    -0.000 A 
DOCKED: ATOM     26  C35 XK2 A 263     -17.175  14.840  29.899+27.45 -0.00    -0.000 A 
DOCKED: ATOM     27  C34 XK2 A 263     -16.242  15.730  30.469+58.86 -0.00    -0.000 A 
DOCKED: ATOM     28  C33 XK2 A 263     -15.015  15.970  29.800+21.36 +0.00    -0.004 A 
DOCKED: ENDBRANCH  22  23
DOCKED: ENDBRANCH   4  22
DOCKED: BRANCH  10  29
DOCKED: ATOM     29  C7  XK2 A 263     -11.683  19.815  28.525+99.99 -0.78    +0.133 C 
DOCKED: BRANCH  29  30
DOCKED: ATOM     30  C70 XK2 A 263     -10.189  19.684  28.703+99.99 -0.00    +0.000 A 
DOCKED: ATOM     31  C71 XK2 A 263      -9.421  20.446  27.803+99.99 +0.01    -0.002 A 
DOCKED: ATOM     32  C72 XK2 A 263      -8.042  20.518  27.983 +9.76 +0.00    -0.000 A 
DOCKED: ATOM     33  C73 XK2 A 263      -7.263  21.265  27.057+65.46 +0.00    -0.000 A 
DOCKED: ATOM     34  C77 XK2 A 263      -7.431  19.816  29.072+14.74 +0.00    -0.000 A 
DOCKED: ATOM     35  C74 XK2 A 263      -5.854  21.303  27.202+99.99 +0.00    -0.000 A 
DOCKED: ATOM     36  C75 XK2 A 263      -5.251  20.610  28.281 +7.41 +0.00    -0.000 A 
DOCKED: ATOM     37  C76 XK2 A 263      -6.024  19.874  29.217+40.51 +0.00    -0.000 A 
DOCKED: ATOM     38  C78 XK2 A 263      -8.212  19.039  29.968+10.86 +0.00    -0.000 A 
DOCKED: ATOM     39  C79 XK2 A 263      -9.594  18.969  29.774+99.99 +0.01    -0.002 A 
DOCKED: ENDBRANCH  29  30
DOCKED: ENDBRANCH  10  29
DOCKED: BRANCH   9  40
DOCKED: ATOM     40  C61 XK2 A 263     -11.987  19.612  25.162+99.99 -0.15    +0.051 C 
DOCKED: BRANCH  40  41
DOCKED: ATOM     41  C62 XK2 A 263     -12.456  18.838  23.947+99.99 +0.02    -0.020 A 
DOCKED: ATOM     42  C67 XK2 A 263     -11.964  17.528  23.742+42.41 +0.00    -0.004 A 
DOCKED: ATOM     43  C66 XK2 A 263     -12.392  16.779  22.622+45.48 +0.00    -0.000 A 
DOCKED: ATOM     44  C65 XK2 A 263     -13.314  17.349  21.722+99.99 +0.00    -0.000 A 
DOCKED: ATOM     45  C64 XK2 A 263     -13.814  18.668  21.922+35.18 +0.00    -0.000 A 
DOCKED: ATOM     46  C63 XK2 A 263     -13.381  19.419  23.040+25.71 +0.00    -0.004 A 
DOCKED: ENDBRANCH  40  41
DOCKED: ENDBRANCH   9  40
DOCKED: TORSDOF 8
DOCKED: TER
DOCKED: ENDMDL
________________________________________________________________________________


	BEGINNING GENETIC ALGORITHM DOCKING 8 of 10
Run: 8 Seed: 1458233666 1403720939 [ Run 8 of 10 GA/GALS ]
Beginning LAMARCKIAN GENETIC ALGORITHM (LGA), with a maximum of 2500000 energy evaluations.

Final-Value: 2368.827


	FINAL GENETIC ALGORITHM DOCKED STATE
	_______________________________________________


Detailed state:  trans -7.008 20.620 24.903 quatxyzw -0.628117 -0.262043 0.341477 0.648226 center -9.192 15.906 27.947 ntor 8 133.5547 96.4442 -79.6658 143.7307 178.2326 -42.5528 -73.5256 79.7215
State:	 -7.008  20.620  24.903  -0.825 -0.344  0.448 99.184    133.55   96.44  -79.67  143.73  178.23  -42.55  -73.53   79.72

DOCKED: MODEL        8
DOCKED: USER    Run = 8
DOCKED: USER    DPF = config.dpf
DOCKED: USER  
DOCKED: USER    Estimated Free Energy of Binding    =   +2.37e+03 kcal/mol  [=(1)+(2)+(3)-(4)]
DOCKED: USER    
DOCKED: USER    (1) Final Intermolecular Energy     =   +2.29e+03 kcal/mol
DOCKED: USER        vdW + Hbond + desolv Energy     =   +2.29e+03 kcal/mol
DOCKED: USER        Electrostatic Energy            =   -0.00 kcal/mol
DOCKED: USER    (2) Final Total Internal Energy     =  +80.13 kcal/mol
DOCKED: USER    (3) Torsional Free Energy           =   +2.39 kcal/mol
DOCKED: USER    (4) Unbound System's Energy         =   -2.72 kcal/mol
DOCKED: USER    
DOCKED: USER    
DOCKED: USER    NEWDPF move ligand.pdbqt
DOCKED: USER    NEWDPF about -9.192000 15.906000 27.947000
DOCKED: USER    NEWDPF tran0 -7.008275 20.619995 24.903149
DOCKED: USER    NEWDPF quaternion0 -0.628117 -0.262043 0.341477 0.648226
DOCKED: USER    NEWDPF axisangle0 -0.824898 -0.344137 0.448457 99.184057
DOCKED: USER    NEWDPF quat0 -0.824898 -0.344137 0.448457 99.184057
DOCKED: USER    NEWDPF dihe0 133.55 96.44 -79.67 143.73 178.23 -42.55 -73.53 79.72 
DOCKED: USER  keepresnum = 1 
DOCKED: USER  
DOCKED: REMARK  8 active torsions:
DOCKED: REMARK  status: ('A' for Active; 'I' for Inactive)
DOCKED: REMARK    1  A    between atoms: N2_1849  and  C2_1850 
DOCKED: REMARK    2  A    between atoms: C2_1850  and  C20_1859 
DOCKED: REMARK    3  A    between atoms: C3_1851  and  C31_1869 
DOCKED: REMARK    4  A    between atoms: C6_1856  and  C61_1876 
DOCKED: REMARK    5  A    between atoms: N7_1857  and  C7_1858 
DOCKED: REMARK    6  A    between atoms: C7_1858  and  C70_1883 
DOCKED: REMARK    7  A    between atoms: C31_1869  and  C32_1870 
DOCKED: REMARK    8  A    between atoms: C61_1876  and  C62_1877 
DOCKED: USER                              x       y       z     vdW  Elec       q    Type
DOCKED: USER                           _______ _______ _______ _____ _____    ______ ____
DOCKED: ROOT
DOCKED: ATOM      1  C1  XK2 A 263      -7.296  20.566  23.920+99.99 -0.40    +0.324 C 
DOCKED: ATOM      2  O1  XK2 A 263      -7.660  20.525  22.753 +3.50 +0.16    -0.247 OA
DOCKED: ATOM      3  N2  XK2 A 263      -6.442  21.572  24.275 +9.26 +0.23    -0.298 N 
DOCKED: ATOM      4  C3  XK2 A 263      -5.425  21.453  25.342 +1.01 +0.01    +0.123 C 
DOCKED: ATOM      5  C4  XK2 A 263      -5.930  21.315  26.772+98.28 -0.06    +0.205 C 
DOCKED: ATOM      6  O4  XK2 A 263      -4.788  21.571  27.540 +9.55 -0.00    -0.219 OA
DOCKED: ATOM      7  C5  XK2 A 263      -6.535  19.945  27.041+99.99 -0.11    +0.205 C 
DOCKED: ATOM      8  O5  XK2 A 263      -6.865  19.786  28.396+11.40 +0.18    -0.219 OA
DOCKED: ATOM      9  C6  XK2 A 263      -7.831  19.771  26.260+19.00 -0.12    +0.123 C 
DOCKED: ATOM     10  N7  XK2 A 263      -7.744  19.614  24.799 +9.95 +0.26    -0.298 N 
DOCKED: ENDROOT
DOCKED: BRANCH   3  11
DOCKED: ATOM     11  C2  XK2 A 263      -6.394  22.716  23.356 +3.75 -0.11    +0.133 C 
DOCKED: BRANCH  11  12
DOCKED: ATOM     12  C20 XK2 A 263      -7.602  23.602  23.190 +0.12 -0.00    +0.000 A 
DOCKED: ATOM     13  C21 XK2 A 263      -7.529  25.020  23.284 +0.85 -0.00    -0.002 A 
DOCKED: ATOM     14  C22 XK2 A 263      -8.710  25.789  23.282+16.74 -0.00    -0.000 A 
DOCKED: ATOM     15  C23 XK2 A 263      -9.957  25.124  23.174+74.67 +0.00    -0.000 A 
DOCKED: ATOM     16  C24 XK2 A 263     -11.157  25.858  23.227+67.00 -0.00    -0.000 A 
DOCKED: ATOM     17  C28 XK2 A 263     -10.020  23.700  23.056 +8.56 +0.00    -0.000 A 
DOCKED: ATOM     18  C25 XK2 A 263     -12.400  25.185  23.148+17.60 -0.00    -0.000 A 
DOCKED: ATOM     19  C26 XK2 A 263     -12.472  23.794  23.019 +7.63 +0.00    -0.000 A 
DOCKED: ATOM     20  C27 XK2 A 263     -11.276  23.045  22.973+17.64 +0.00    -0.000 A 
DOCKED: ATOM     21  C29 XK2 A 263      -8.840  22.938  23.062 +7.46 +0.00    -0.002 A 
DOCKED: ENDBRANCH  11  12
DOCKED: ENDBRANCH   3  11
DOCKED: BRANCH   4  22
DOCKED: ATOM     22  C31 XK2 A 263      -4.329  20.432  24.893+90.31 +0.04    +0.051 C 
DOCKED: BRANCH  22  23
DOCKED: ATOM     23  C32 XK2 A 263      -4.737  19.677  23.632+42.23 -0.01    -0.020 A 
DOCKED: ATOM     24  C37 XK2 A 263      -4.272  18.354  23.417+23.34 -0.00    -0.004 A 
DOCKED: ATOM     25  C36 XK2 A 263      -4.547  17.701  22.198 -0.22 +0.00    -0.000 A 
DOCKED: ATOM     26  C35 XK2 A 263      -5.281  18.369  21.187 +1.38 +0.00    -0.000 A 
DOCKED: ATOM     27  C34 XK2 A 263      -5.759  19.680  21.388 +8.96 +0.00    -0.000 A 
DOCKED: ATOM     28  C33 XK2 A 263      -5.493  20.332  22.619+10.77 +0.00    -0.004 A 
DOCKED: ENDBRANCH  22  23
DOCKED: ENDBRANCH   4  22
DOCKED: BRANCH  10  29
DOCKED: ATOM     29  C7  XK2 A 263      -8.353  18.408  24.232 +1.97 -0.05    +0.133 C 
DOCKED: BRANCH  29  30
DOCKED: ATOM     30  C70 XK2 A 263      -9.547  17.783  24.912+21.44 -0.00    +0.000 A 
DOCKED: ATOM     31  C71 XK2 A 263     -10.790  18.313  24.519+99.99 +0.00    -0.002 A 
DOCKED: ATOM     32  C72 XK2 A 263     -11.959  17.703  24.969+16.78 +0.00    -0.000 A 
DOCKED: ATOM     33  C73 XK2 A 263     -13.215  18.255  24.595+79.64 +0.00    -0.000 A 
DOCKED: ATOM     34  C77 XK2 A 263     -11.876  16.554  25.821 +6.16 +0.00    -0.000 A 
DOCKED: ATOM     35  C74 XK2 A 263     -14.408  17.672  25.087+65.41 +0.00    -0.000 A 
DOCKED: ATOM     36  C75 XK2 A 263     -14.325  16.535  25.929+28.33 +0.00    -0.000 A 
DOCKED: ATOM     37  C76 XK2 A 263     -13.075  15.969  26.294+11.61 +0.00    -0.000 A 
DOCKED: ATOM     38  C78 XK2 A 263     -10.617  16.033  26.221+26.42 +0.00    -0.000 A 
DOCKED: ATOM     39  C79 XK2 A 263      -9.452  16.658  25.770+99.99 +0.00    -0.002 A 
DOCKED: ENDBRANCH  29  30
DOCKED: ENDBRANCH  10  29
DOCKED: BRANCH   9  40
DOCKED: ATOM     40  C61 XK2 A 263      -8.957  20.785  26.561+99.99 -0.08    +0.051 C 
DOCKED: BRANCH  40  41
DOCKED: ATOM     41  C62 XK2 A 263      -8.612  21.659  27.749+30.38 +0.04    -0.020 A 
DOCKED: ATOM     42  C67 XK2 A 263      -7.531  21.284  28.580+18.92 +0.01    -0.004 A 
DOCKED: ATOM     43  C66 XK2 A 263      -7.181  22.086  29.691 +5.92 +0.00    -0.000 A 
DOCKED: ATOM     44  C65 XK2 A 263      -7.916  23.259  29.953 +8.03 +0.00    -0.000 A 
DOCKED: ATOM     45  C64 XK2 A 263      -9.007  23.643  29.122+39.88 +0.00    -0.000 A 
DOCKED: ATOM     46  C63 XK2 A 263      -9.359  22.837  28.014+53.11 +0.00    -0.004 A 
DOCKED: ENDBRANCH  40  41
DOCKED: ENDBRANCH   9  40
DOCKED: TORSDOF 8
DOCKED: TER
DOCKED: ENDMDL
________________________________________________________________________________


	BEGINNING GENETIC ALGORITHM DOCKING 9 of 10
Run: 9 Seed: 1814452048 2085899837 [ Run 9 of 10 GA/GALS ]
Beginning LAMARCKIAN GENETIC ALGORITHM (LGA), with a maximum of 2500000 energy evaluations.

Final-Value: 4397.747


	FINAL GENETIC ALGORITHM DOCKED STATE
	_______________________________________________


Detailed state:  trans -13.078 16.900 27.467 quatxyzw 0.767450 -0.069900 0.259791 -0.581931 center -9.192 15.906 27.947 ntor 8 149.6547 141.2649 99.7334 -168.0822 -179.5879 58.3818 166.8219 139.8463
State:	-13.078  16.900  27.467   0.944 -0.086  0.319 -108.827    149.65  141.26   99.73 -168.08 -179.59   58.38  166.82  139.85

DOCKED: MODEL        9
DOCKED: USER    Run = 9
DOCKED: USER    DPF = config.dpf
DOCKED: USER  
DOCKED: USER    Estimated Free Energy of Binding    =   +4.40e+03 kcal/mol  [=(1)+(2)+(3)-(4)]
DOCKED: USER    
DOCKED: USER    (1) Final Intermolecular Energy     =   +4.35e+03 kcal/mol
DOCKED: USER        vdW + Hbond + desolv Energy     =   +4.35e+03 kcal/mol
DOCKED: USER        Electrostatic Energy            =   -0.39 kcal/mol
DOCKED: USER    (2) Final Total Internal Energy     =  +49.59 kcal/mol
DOCKED: USER    (3) Torsional Free Energy           =   +2.39 kcal/mol
DOCKED: USER    (4) Unbound System's Energy         =   -2.72 kcal/mol
DOCKED: USER    
DOCKED: USER    
DOCKED: USER    NEWDPF move ligand.pdbqt
DOCKED: USER    NEWDPF about -9.192000 15.906000 27.947000
DOCKED: USER    NEWDPF tran0 -13.077983 16.900304 27.466847
DOCKED: USER    NEWDPF quaternion0 0.767450 -0.069900 0.259791 -0.581931
DOCKED: USER    NEWDPF axisangle0 0.943696 -0.085952 0.319453 -108.827119
DOCKED: USER    NEWDPF quat0 0.943696 -0.085952 0.319453 -108.827119
DOCKED: USER    NEWDPF dihe0 149.65 141.26 99.73 -168.08 -179.59 58.38 166.82 139.85 
DOCKED: USER  keepresnum = 1 
DOCKED: USER  
DOCKED: REMARK  8 active torsions:
DOCKED: REMARK  status: ('A' for Active; 'I' for Inactive)
DOCKED: REMARK    1  A    between atoms: N2_1849  and  C2_1850 
DOCKED: REMARK    2  A    between atoms: C2_1850  and  C20_1859 
DOCKED: REMARK    3  A    between atoms: C3_1851  and  C31_1869 
DOCKED: REMARK    4  A    between atoms: C6_1856  and  C61_1876 
DOCKED: REMARK    5  A    between atoms: N7_1857  and  C7_1858 
DOCKED: REMARK    6  A    between atoms: C7_1858  and  C70_1883 
DOCKED: REMARK    7  A    between atoms: C31_1869  and  C32_1870 
DOCKED: REMARK    8  A    between atoms: C61_1876  and  C62_1877 
DOCKED: USER                              x       y       z     vdW  Elec       q    Type
DOCKED: USER                           _______ _______ _______ _____ _____    ______ ____
DOCKED: ROOT
DOCKED: ATOM      1  C1  XK2 A 263     -12.232  17.272  27.020+99.99 -1.13    +0.324 C 
DOCKED: ATOM      2  O1  XK2 A 263     -11.243  17.735  26.470+99.99 +0.45    -0.247 OA
DOCKED: ATOM      3  N2  XK2 A 263     -12.790  18.006  28.028+99.99 +1.16    -0.298 N 
DOCKED: ATOM      4  C3  XK2 A 263     -13.499  17.417  29.184+18.17 -0.18    +0.123 C 
DOCKED: ATOM      5  C4  XK2 A 263     -14.821  16.713  28.904+99.99 -0.14    +0.205 C 
DOCKED: ATOM      6  O4  XK2 A 263     -15.389  16.585  30.177+13.25 +0.08    -0.219 OA
DOCKED: ATOM      7  C5  XK2 A 263     -14.626  15.378  28.200 +9.05 -0.08    +0.205 C 
DOCKED: ATOM      8  O5  XK2 A 263     -15.837  14.680  28.077 +4.03 +0.00    -0.219 OA
DOCKED: ATOM      9  C6  XK2 A 263     -14.109  15.592  26.783 +5.34 -0.10    +0.123 C 
DOCKED: ATOM     10  N7  XK2 A 263     -12.722  16.057  26.615+36.62 +0.39    -0.298 N 
DOCKED: ENDROOT
DOCKED: BRANCH   3  11
DOCKED: ATOM     11  C2  XK2 A 263     -12.421  19.427  28.056+99.99 -0.76    +0.133 C 
DOCKED: BRANCH  11  12
DOCKED: ATOM     12  C20 XK2 A 263     -10.968  19.829  28.055+99.99 -0.00    +0.000 A 
DOCKED: ATOM     13  C21 XK2 A 263     -10.452  20.826  27.181+99.99 +0.01    -0.002 A 
DOCKED: ATOM     14  C22 XK2 A 263      -9.062  21.050  27.108+99.99 +0.00    -0.000 A 
DOCKED: ATOM     15  C23 XK2 A 263      -8.202  20.272  27.924+15.19 +0.00    -0.000 A 
DOCKED: ATOM     16  C24 XK2 A 263      -6.807  20.430  27.831 +7.77 +0.00    -0.000 A 
DOCKED: ATOM     17  C28 XK2 A 263      -8.732  19.288  28.816+99.99 +0.00    -0.000 A 
DOCKED: ATOM     18  C25 XK2 A 263      -5.952  19.630  28.628+18.33 +0.00    -0.000 A 
DOCKED: ATOM     19  C26 XK2 A 263      -6.460  18.673  29.514+99.99 +0.00    -0.000 A 
DOCKED: ATOM     20  C27 XK2 A 263      -7.858  18.500  29.610+81.31 +0.00    -0.000 A 
DOCKED: ATOM     21  C29 XK2 A 263     -10.117  19.067  28.884+99.99 +0.01    -0.002 A 
DOCKED: ENDBRANCH  11  12
DOCKED: ENDBRANCH   3  11
DOCKED: BRANCH   4  22
DOCKED: ATOM     22  C31 XK2 A 263     -12.474  16.638  30.071+29.15 -0.04    +0.051 C 
DOCKED: BRANCH  22  23
DOCKED: ATOM     23  C32 XK2 A 263     -13.076  16.229  31.411+20.04 +0.01    -0.020 A 
DOCKED: ATOM     24  C37 XK2 A 263     -12.347  16.439  32.609 +1.98 +0.00    -0.004 A 
DOCKED: ATOM     25  C36 XK2 A 263     -12.849  15.952  33.833 +7.79 +0.00    -0.000 A 
DOCKED: ATOM     26  C35 XK2 A 263     -14.078  15.247  33.864 +0.64 +0.00    -0.000 A 
DOCKED: ATOM     27  C34 XK2 A 263     -14.821  15.038  32.684 +1.56 -0.00    -0.000 A 
DOCKED: ATOM     28  C33 XK2 A 263     -14.322  15.540  31.454+13.06 +0.00    -0.004 A 
DOCKED: ENDBRANCH  22  23
DOCKED: ENDBRANCH   4  22
DOCKED: BRANCH  10  29
DOCKED: ATOM     29  C7  XK2 A 263     -11.846  15.220  25.791+10.48 -0.07    +0.133 C 
DOCKED: BRANCH  29  30
DOCKED: ATOM     30  C70 XK2 A 263     -11.748  15.476  24.305+45.01 -0.00    +0.000 A 
DOCKED: ATOM     31  C71 XK2 A 263     -11.019  14.508  23.590+99.99 +0.00    -0.002 A 
DOCKED: ATOM     32  C72 XK2 A 263     -11.001  14.567  22.199+99.99 +0.00    -0.000 A 
DOCKED: ATOM     33  C73 XK2 A 263     -10.240  13.606  21.476+22.86 +0.00    -0.000 A 
DOCKED: ATOM     34  C77 XK2 A 263     -11.719  15.606  21.524+62.09 +0.00    -0.000 A 
DOCKED: ATOM     35  C74 XK2 A 263     -10.176  13.687  20.063+80.22 -0.00    -0.000 A 
DOCKED: ATOM     36  C75 XK2 A 263     -10.888  14.715  19.397+99.99 +0.00    -0.000 A 
DOCKED: ATOM     37  C76 XK2 A 263     -11.661  15.668  20.110+99.99 +0.00    -0.000 A 
DOCKED: ATOM     38  C78 XK2 A 263     -12.443  16.585  22.254+20.38 +0.00    -0.000 A 
DOCKED: ATOM     39  C79 XK2 A 263     -12.448  16.521  23.650+37.31 +0.00    -0.002 A 
DOCKED: ENDBRANCH  29  30
DOCKED: ENDBRANCH  10  29
DOCKED: BRANCH   9  40
DOCKED: ATOM     40  C61 XK2 A 263     -15.005  16.428  25.842+50.90 -0.05    +0.051 C 
DOCKED: BRANCH  40  41
DOCKED: ATOM     41  C62 XK2 A 263     -15.628  17.602  26.570 +6.15 +0.02    -0.020 A 
DOCKED: ATOM     42  C67 XK2 A 263     -14.913  18.204  27.632+12.80 +0.01    -0.004 A 
DOCKED: ATOM     43  C66 XK2 A 263     -15.466  19.306  28.322+99.99 +0.00    -0.000 A 
DOCKED: ATOM     44  C65 XK2 A 263     -16.728  19.799  27.936 +5.77 +0.00    -0.000 A 
DOCKED: ATOM     45  C64 XK2 A 263     -17.455  19.198  26.869+56.11 +0.00    -0.000 A 
DOCKED: ATOM     46  C63 XK2 A 263     -16.903  18.092  26.182+27.39 +0.00    -0.004 A 
DOCKED: ENDBRANCH  40  41
DOCKED: ENDBRANCH   9  40
DOCKED: TORSDOF 8
DOCKED: TER
DOCKED: ENDMDL
________________________________________________________________________________


	BEGINNING GENETIC ALGORITHM DOCKING 10 of 10
Run: 10 Seed: 1626309062 2087281573 [ Run 10 of 10 GA/GALS ]
Beginning LAMARCKIAN GENETIC ALGORITHM (LGA), with a maximum of 2500000 energy evaluations.

Final-Value: 2674.148


	FINAL GENETIC ALGORITHM DOCKED STATE
	_______________________________________________


Detailed state:  trans -15.473 17.730 27.322 quatxyzw 0.324634 -0.131182 -0.935224 -0.052534 center -9.192 15.906 27.947 ntor 8 54.8675 -82.0615 146.9997 -39.7606 107.2224 -145.7499 -82.2406 14.4970
State:	-15.473  17.730  27.322   0.325 -0.131 -0.937 -173.977     54.87  -82.06  147.00  -39.76  107.22 -145.75  -82.24   14.50

DOCKED: MODEL       10
DOCKED: USER    Run = 10
DOCKED: USER    DPF = config.dpf
DOCKED: USER  
DOCKED: USER    Estimated Free Energy of Binding    =   +2.68e+03 kcal/mol  [=(1)+(2)+(3)-(4)]
DOCKED: USER    
DOCKED: USER    (1) Final Intermolecular Energy     =   +2.65e+03 kcal/mol
DOCKED: USER        vdW + Hbond + desolv Energy     =   +2.65e+03 kcal/mol
DOCKED: USER        Electrostatic Energy            =   +0.02 kcal/mol
DOCKED: USER    (2) Final Total Internal Energy     =  +26.57 kcal/mol
DOCKED: USER    (3) Torsional Free Energy           =   +2.39 kcal/mol
DOCKED: USER    (4) Unbound System's Energy         =   -2.72 kcal/mol
DOCKED: USER    
DOCKED: USER    
DOCKED: USER    NEWDPF move ligand.pdbqt
DOCKED: USER    NEWDPF about -9.192000 15.906000 27.947000
DOCKED: USER    NEWDPF tran0 -15.473490 17.729832 27.321860
DOCKED: USER    NEWDPF quaternion0 0.324634 -0.131182 -0.935224 -0.052534
DOCKED: USER    NEWDPF axisangle0 0.325083 -0.131363 -0.936517 -173.977249
DOCKED: USER    NEWDPF quat0 0.325083 -0.131363 -0.936517 -173.977249
DOCKED: USER    NEWDPF dihe0 54.87 -82.06 147.00 -39.76 107.22 -145.75 -82.24 14.50 
DOCKED: USER  keepresnum = 1 
DOCKED: USER  
DOCKED: REMARK  8 active torsions:
DOCKED: REMARK  status: ('A' for Active; 'I' for Inactive)
DOCKED: REMARK    1  A    between atoms: N2_1849  and  C2_1850 
DOCKED: REMARK    2  A    between atoms: C2_1850  and  C20_1859 
DOCKED: REMARK    3  A    between atoms: C3_1851  and  C31_1869 
DOCKED: REMARK    4  A    between atoms: C6_1856  and  C61_1876 
DOCKED: REMARK    5  A    between atoms: N7_1857  and  C7_1858 
DOCKED: REMARK    6  A    between atoms: C7_1858  and  C70_1883 
DOCKED: REMARK    7  A    between atoms: C31_1869  and  C32_1870 
DOCKED: REMARK    8  A    between atoms: C61_1876  and  C62_1877 
DOCKED: USER                              x       y       z     vdW  Elec       q    Type
DOCKED: USER                           _______ _______ _______ _____ _____    ______ ____
DOCKED: ROOT
DOCKED: ATOM      1  C1  XK2 A 263     -15.944  18.437  26.746 +9.42 -0.26    +0.324 C 
DOCKED: ATOM      2  O1  XK2 A 263     -16.476  19.291  26.052 +9.28 +0.15    -0.247 OA
DOCKED: ATOM      3  N2  XK2 A 263     -15.399  17.359  26.106 +0.71 +0.33    -0.298 N 
DOCKED: ATOM      4  C3  XK2 A 263     -15.316  16.006  26.694 +9.64 -0.07    +0.123 C 
DOCKED: ATOM      5  C4  XK2 A 263     -14.388  15.822  27.889 +5.06 -0.14    +0.205 C 
DOCKED: ATOM      6  O4  XK2 A 263     -14.262  14.431  27.984 +8.01 +0.05    -0.219 OA
DOCKED: ATOM      7  C5  XK2 A 263     -14.944  16.459  29.154+99.99 -0.10    +0.205 C 
DOCKED: ATOM      8  O5  XK2 A 263     -14.150  16.161  30.272+12.21 +0.15    -0.219 OA
DOCKED: ATOM      9  C6  XK2 A 263     -14.954  17.977  29.028+97.09 -0.08    +0.123 C 
DOCKED: ATOM     10  N7  XK2 A 263     -15.927  18.590  28.108+24.62 +0.18    -0.298 N 
DOCKED: ENDROOT
DOCKED: BRANCH   3  11
DOCKED: ATOM     11  C2  XK2 A 263     -15.131  17.542  24.674+97.34 -0.10    +0.133 C 
DOCKED: BRANCH  11  12
DOCKED: ATOM     12  C20 XK2 A 263     -14.232  18.658  24.211+99.99 -0.00    +0.000 A 
DOCKED: ATOM     13  C21 XK2 A 263     -12.879  18.776  24.638+99.99 +0.00    -0.002 A 
DOCKED: ATOM     14  C22 XK2 A 263     -12.131  19.924  24.304+99.99 +0.00    -0.000 A 
DOCKED: ATOM     15  C23 XK2 A 263     -12.749  20.941  23.534+99.99 +0.00    -0.000 A 
DOCKED: ATOM     16  C24 XK2 A 263     -12.049  22.124  23.234+92.13 +0.00    -0.000 A 
DOCKED: ATOM     17  C28 XK2 A 263     -14.101  20.803  23.089+40.41 +0.00    -0.000 A 
DOCKED: ATOM     18  C25 XK2 A 263     -12.682  23.149  22.489 +9.00 +0.00    -0.000 A 
DOCKED: ATOM     19  C26 XK2 A 263     -14.000  23.019  22.038+19.92 +0.00    -0.000 A 
DOCKED: ATOM     20  C27 XK2 A 263     -14.716  21.839  22.339+99.88 +0.00    -0.000 A 
DOCKED: ATOM     21  C29 XK2 A 263     -14.843  19.659  23.426+35.80 +0.00    -0.002 A 
DOCKED: ENDBRANCH  11  12
DOCKED: ENDBRANCH   3  11
DOCKED: BRANCH   4  22
DOCKED: ATOM     22  C31 XK2 A 263     -16.758  15.420  26.841+21.65 -0.01    +0.051 C 
DOCKED: BRANCH  22  23
DOCKED: ATOM     23  C32 XK2 A 263     -16.906  14.583  28.107+46.66 -0.00    -0.020 A 
DOCKED: ATOM     24  C37 XK2 A 263     -18.009  14.797  28.973+13.86 -0.00    -0.004 A 
DOCKED: ATOM     25  C36 XK2 A 263     -18.081  14.111  30.203+22.49 -0.00    -0.000 A 
DOCKED: ATOM     26  C35 XK2 A 263     -17.049  13.213  30.574+10.91 -0.00    -0.000 A 
DOCKED: ATOM     27  C34 XK2 A 263     -15.952  12.981  29.720 +7.75 -0.00    -0.000 A 
DOCKED: ATOM     28  C33 XK2 A 263     -15.885  13.661  28.478 +7.33 -0.00    -0.004 A 
DOCKED: ENDBRANCH  22  23
DOCKED: ENDBRANCH   4  22
DOCKED: BRANCH  10  29
DOCKED: ATOM     29  C7  XK2 A 263     -16.839  19.582  28.685+14.19 -0.05    +0.133 C 
DOCKED: BRANCH  29  30
DOCKED: ATOM     30  C70 XK2 A 263     -17.335  19.406  30.101+21.27 -0.00    +0.000 A 
DOCKED: ATOM     31  C71 XK2 A 263     -17.159  18.113  30.628+67.07 -0.00    -0.002 A 
DOCKED: ATOM     32  C72 XK2 A 263     -17.439  17.888  31.974 +0.13 -0.00    -0.000 A 
DOCKED: ATOM     33  C73 XK2 A 263     -17.288  16.575  32.500+71.30 -0.00    -0.000 A 
DOCKED: ATOM     34  C77 XK2 A 263     -17.902  18.968  32.792 +0.92 -0.00    -0.000 A 
DOCKED: ATOM     35  C74 XK2 A 263     -17.618  16.325  33.855+99.99 +0.00    -0.000 A 
DOCKED: ATOM     36  C75 XK2 A 263     -18.074  17.395  34.664+66.06 +0.00    -0.000 A 
DOCKED: ATOM     37  C76 XK2 A 263     -18.213  18.710  34.149+34.32 -0.00    -0.000 A 
DOCKED: ATOM     38  C78 XK2 A 263     -18.088  20.267  32.249+14.69 -0.00    -0.000 A 
DOCKED: ATOM     39  C79 XK2 A 263     -17.811  20.480  30.896+52.87 +0.00    -0.002 A 
DOCKED: ENDBRANCH  29  30
DOCKED: ENDBRANCH  10  29
DOCKED: BRANCH   9  40
DOCKED: ATOM     40  C61 XK2 A 263     -13.586  18.657  28.790+87.84 -0.11    +0.051 C 
DOCKED: BRANCH  40  41
DOCKED: ATOM     41  C62 XK2 A 263     -13.752  20.110  28.396+99.99 +0.06    -0.020 A 
DOCKED: ATOM     42  C67 XK2 A 263     -12.614  20.950  28.390+99.99 +0.02    -0.004 A 
DOCKED: ATOM     43  C66 XK2 A 263     -12.738  22.308  28.018 +6.89 +0.00    -0.000 A 
DOCKED: ATOM     44  C65 XK2 A 263     -14.002  22.809  27.650+82.47 +0.00    -0.000 A 
DOCKED: ATOM     45  C64 XK2 A 263     -15.153  21.971  27.655+49.13 +0.00    -0.000 A 
DOCKED: ATOM     46  C63 XK2 A 263     -15.029  20.614  28.032+35.12 +0.01    -0.004 A 
DOCKED: ENDBRANCH  40  41
DOCKED: ENDBRANCH   9  40
DOCKED: TORSDOF 8
DOCKED: TER
DOCKED: ENDMDL
________________________________________________________________________________

DPF> analysis                             # perform a ranked cluster analysis


		CLUSTER ANALYSIS OF CONFORMATIONS
		_________________________________

Number of conformations = 10

RMSD cluster analysis will be performed using the ligand atoms only (46 / 46 total atoms).

Outputting structurally similar clusters, ranked in order of increasing energy.


________________________________________________________________________________

Number of distinct conformational clusters found = 9,  out of 10 runs,
Using an rmsd-tolerance of 2.0 A


	CLUSTERING HISTOGRAM
	____________________

________________________________________________________________________________
     |           |     |           |     |                                    
Clus | Lowest    | Run | Mean      | Num | Histogram                          
-ter | Binding   |     | Binding   | in  |                                    
Rank | Energy    |     | Energy    | Clus|    5    10   15   20   25   30   35
_____|___________|_____|___________|_____|____:____|____:____|____:____|____:___
   1 |  +2373.93 |   8 |  +2373.93 |   1 |#
   2 |  +2448.01 |   5 |  +2448.01 |   1 |#
   3 |  +2679.25 |  10 |  +2679.25 |   1 |#
   4 |  +3084.03 |   1 |  +3084.03 |   1 |#
   5 |  +4312.19 |   3 |  +4357.52 |   2 |##
   6 |  +4444.21 |   6 |  +4444.21 |   1 |#
   7 |  +5533.96 |   7 |  +5533.96 |   1 |#
   8 |  +6059.37 |   2 |  +6059.37 |   1 |#
   9 |  +6957.02 |   4 |  +6957.02 |   1 |#
_____|___________|_____|___________|_____|______________________________________


Number of multi-member conformational clusters found = 1, out of 10 runs.

	RMSD TABLE
	__________

_____________________________________________________________________
     |      |      |           |         |                 |
Rank | Sub- | Run  | Binding   | Cluster | Reference       | Grep
     | Rank |      | Energy    | RMSD    | RMSD            | Pattern
_____|______|______|___________|_________|_________________|___________
   1      1      8    +2373.93      0.00      5.15           RANKING
   2      1      5    +2448.01      0.00      5.23           RANKING
   3      1     10    +2679.25      0.00      5.96           RANKING
   4      1      1    +3084.03      0.00      3.92           RANKING
   5      1      3    +4312.19      0.00      3.98           RANKING
   5      2      9    +4402.85      1.57      3.66           RANKING
   6      1      6    +4444.21      0.00      5.06           RANKING
   7      1      7    +5533.96      0.00      4.48           RANKING
   8      1      2    +6059.37      0.00      3.71           RANKING
   9      1      4    +6957.02      0.00      4.41           RANKING
_______________________________________________________________________



	INFORMATION ENTROPY ANALYSIS FOR THIS CLUSTERING
	________________________________________________


Information entropy for this clustering = 0.94  (rmstol = 2.00 Angstrom)

_______________________________________________________________________


	STATISTICAL MECHANICAL ANALYSIS
	_______________________________


Partition function, Q =     0.05            at Temperature, T = 298.15 K
Free energy,        A ~  1745.25 kcal/mol   at Temperature, T = 298.15 K
Internal energy,    U =  2612.39 kcal/mol   at Temperature, T = 298.15 K
Entropy,            S =     2.91 kcal/mol/K at Temperature, T = 298.15 K

_______________________________________________________________________


	LOWEST ENERGY DOCKED CONFORMATION from EACH CLUSTER
	___________________________________________________



Keeping original residue number (specified in the input PDBQ file) for outputting.

MODEL        8
USER    Run = 8
USER    Cluster Rank = 1
USER    Number of conformations in this cluster = 1
USER  
USER    RMSD from reference structure       = 5.151 A
USER  
USER    Estimated Free Energy of Binding    =   +2.37e+03 kcal/mol  [=(1)+(2)+(3)-(4)]
USER    
USER    (1) Final Intermolecular Energy     =   +2.29e+03 kcal/mol
USER        vdW + Hbond + desolv Energy     =   +2.29e+03 kcal/mol
USER        Electrostatic Energy            =   -0.00 kcal/mol
USER    (2) Final Total Internal Energy     =  +80.13 kcal/mol
USER    (3) Torsional Free Energy           =   +2.39 kcal/mol
USER    (4) Unbound System's Energy         =   -2.72 kcal/mol
USER    
USER    
USER  
USER    DPF = config.dpf
USER    NEWDPF move	ligand.pdbqt
USER    NEWDPF about	-9.192000 15.906000 27.947000
USER    NEWDPF tran0	-7.008275 20.619995 24.903149
USER    NEWDPF axisangle0	-0.824898 -0.344137 0.448457 99.184057
USER    NEWDPF quaternion0	-0.628117 -0.262043 0.341477 0.648226
USER    NEWDPF dihe0	133.55 96.44 -79.67 143.73 178.23 -42.55 -73.53 79.72 
USER  
USER                              x       y       z    vdW   Elec        q     RMS 
ATOM      1  C1  XK2 A 263      -7.296  20.566  23.920+99.99 -0.40    +0.324     5.151
ATOM      2  O1  XK2 A 263      -7.660  20.525  22.753 +3.50 +0.16    -0.247     5.151
ATOM      3  N2  XK2 A 263      -6.442  21.572  24.275 +9.26 +0.23    -0.298     5.151
ATOM      4  C3  XK2 A 263      -5.425  21.453  25.342 +1.01 +0.01    +0.123     5.151
ATOM      5  C4  XK2 A 263      -5.930  21.315  26.772+98.28 -0.06    +0.205     5.151
ATOM      6  O4  XK2 A 263      -4.788  21.571  27.540 +9.55 -0.00    -0.219     5.151
ATOM      7  C5  XK2 A 263      -6.535  19.945  27.041+99.99 -0.11    +0.205     5.151
ATOM      8  O5  XK2 A 263      -6.865  19.786  28.396+11.40 +0.18    -0.219     5.151
ATOM      9  C6  XK2 A 263      -7.831  19.771  26.260+19.00 -0.12    +0.123     5.151
ATOM     10  N7  XK2 A 263      -7.744  19.614  24.799 +9.95 +0.26    -0.298     5.151
ATOM     11  C2  XK2 A 263      -6.394  22.716  23.356 +3.75 -0.11    +0.133     5.151
ATOM     12  C20 XK2 A 263      -7.602  23.602  23.190 +0.12 -0.00    +0.000     5.151
ATOM     13  C21 XK2 A 263      -7.529  25.020  23.284 +0.85 -0.00    -0.002     5.151
ATOM     14  C22 XK2 A 263      -8.710  25.789  23.282+16.74 -0.00    -0.000     5.151
ATOM     15  C23 XK2 A 263      -9.957  25.124  23.174+74.67 +0.00    -0.000     5.151
ATOM     16  C24 XK2 A 263     -11.157  25.858  23.227+67.00 -0.00    -0.000     5.151
ATOM     17  C28 XK2 A 263     -10.020  23.700  23.056 +8.56 +0.00    -0.000     5.151
ATOM     18  C25 XK2 A 263     -12.400  25.185  23.148+17.60 -0.00    -0.000     5.151
ATOM     19  C26 XK2 A 263     -12.472  23.794  23.019 +7.63 +0.00    -0.000     5.151
ATOM     20  C27 XK2 A 263     -11.276  23.045  22.973+17.64 +0.00    -0.000     5.151
ATOM     21  C29 XK2 A 263      -8.840  22.938  23.062 +7.46 +0.00    -0.002     5.151
ATOM     22  C31 XK2 A 263      -4.329  20.432  24.893+90.31 +0.04    +0.051     5.151
ATOM     23  C32 XK2 A 263      -4.737  19.677  23.632+42.23 -0.01    -0.020     5.151
ATOM     24  C37 XK2 A 263      -4.272  18.354  23.417+23.34 -0.00    -0.004     5.151
ATOM     25  C36 XK2 A 263      -4.547  17.701  22.198 -0.22 +0.00    -0.000     5.151
ATOM     26  C35 XK2 A 263      -5.281  18.369  21.187 +1.38 +0.00    -0.000     5.151
ATOM     27  C34 XK2 A 263      -5.759  19.680  21.388 +8.96 +0.00    -0.000     5.151
ATOM     28  C33 XK2 A 263      -5.493  20.332  22.619+10.77 +0.00    -0.004     5.151
ATOM     29  C7  XK2 A 263      -8.353  18.408  24.232 +1.97 -0.05    +0.133     5.151
ATOM     30  C70 XK2 A 263      -9.547  17.783  24.912+21.44 -0.00    +0.000     5.151
ATOM     31  C71 XK2 A 263     -10.790  18.313  24.519+99.99 +0.00    -0.002     5.151
ATOM     32  C72 XK2 A 263     -11.959  17.703  24.969+16.78 +0.00    -0.000     5.151
ATOM     33  C73 XK2 A 263     -13.215  18.255  24.595+79.64 +0.00    -0.000     5.151
ATOM     34  C77 XK2 A 263     -11.876  16.554  25.821 +6.16 +0.00    -0.000     5.151
ATOM     35  C74 XK2 A 263     -14.408  17.672  25.087+65.41 +0.00    -0.000     5.151
ATOM     36  C75 XK2 A 263     -14.325  16.535  25.929+28.33 +0.00    -0.000     5.151
ATOM     37  C76 XK2 A 263     -13.075  15.969  26.294+11.61 +0.00    -0.000     5.151
ATOM     38  C78 XK2 A 263     -10.617  16.033  26.221+26.42 +0.00    -0.000     5.151
ATOM     39  C79 XK2 A 263      -9.452  16.658  25.770+99.99 +0.00    -0.002     5.151
ATOM     40  C61 XK2 A 263      -8.957  20.785  26.561+99.99 -0.08    +0.051     5.151
ATOM     41  C62 XK2 A 263      -8.612  21.659  27.749+30.38 +0.04    -0.020     5.151
ATOM     42  C67 XK2 A 263      -7.531  21.284  28.580+18.92 +0.01    -0.004     5.151
ATOM     43  C66 XK2 A 263      -7.181  22.086  29.691 +5.92 +0.00    -0.000     5.151
ATOM     44  C65 XK2 A 263      -7.916  23.259  29.953 +8.03 +0.00    -0.000     5.151
ATOM     45  C64 XK2 A 263      -9.007  23.643  29.122+39.88 +0.00    -0.000     5.151
ATOM     46  C63 XK2 A 263      -9.359  22.837  28.014+53.11 +0.00    -0.004     5.151
TER
ENDMDL
MODEL        5
USER    Run = 5
USER    Cluster Rank = 2
USER    Number of conformations in this cluster = 1
USER  
USER    RMSD from reference structure       = 5.231 A
USER  
USER    Estimated Free Energy of Binding    =   +2.45e+03 kcal/mol  [=(1)+(2)+(3)-(4)]
USER    
USER    (1) Final Intermolecular Energy     =   +2.41e+03 kcal/mol
USER        vdW + Hbond + desolv Energy     =   +2.41e+03 kcal/mol
USER        Electrostatic Energy            =   -0.13 kcal/mol
USER    (2) Final Total Internal Energy     =  +34.96 kcal/mol
USER    (3) Torsional Free Energy           =   +2.39 kcal/mol
USER    (4) Unbound System's Energy         =   -2.72 kcal/mol
USER    
USER    
USER  
USER    DPF = config.dpf
USER    NEWDPF move	ligand.pdbqt
USER    NEWDPF about	-9.192000 15.906000 27.947000
USER    NEWDPF tran0	-13.409814 17.937623 24.889215
USER    NEWDPF axisangle0	0.389754 0.241344 0.888732 -116.701576
USER    NEWDPF quaternion0	0.331788 0.205451 0.756557 -0.524717
USER    NEWDPF dihe0	147.32 120.51 157.40 43.52 122.89 32.34 -179.91 152.63 
USER  
USER                              x       y       z    vdW   Elec        q     RMS 
ATOM      1  C1  XK2 A 263     -12.982  18.787  24.503+92.85 -0.62    +0.324     5.231
ATOM      2  O1  XK2 A 263     -12.473  19.785  24.013+99.99 +0.28    -0.247     5.231
ATOM      3  N2  XK2 A 263     -14.336  18.650  24.385+99.99 +0.28    -0.298     5.231
ATOM      4  C3  XK2 A 263     -15.186  17.957  25.377+28.05 -0.14    +0.123     5.231
ATOM      5  C4  XK2 A 263     -15.002  16.452  25.519+99.99 -0.17    +0.205     5.231
ATOM      6  O4  XK2 A 263     -16.137  16.058  26.238 +1.70 +0.08    -0.219     5.231
ATOM      7  C5  XK2 A 263     -13.699  16.093  26.218+12.27 -0.29    +0.205     5.231
ATOM      8  O5  XK2 A 263     -13.611  14.715  26.467 +9.13 +0.10    -0.219     5.231
ATOM      9  C6  XK2 A 263     -12.506  16.447  25.339 +4.77 -0.18    +0.123     5.231
ATOM     10  N7  XK2 A 263     -12.187  17.871  25.144+65.53 +0.89    -0.298     5.231
ATOM     11  C2  XK2 A 263     -14.967  19.469  23.341+28.01 -0.08    +0.133     5.231
ATOM     12  C20 XK2 A 263     -14.508  20.886  23.115+50.06 -0.00    +0.000     5.231
ATOM     13  C21 XK2 A 263     -13.279  21.198  22.469+76.76 +0.00    -0.002     5.231
ATOM     14  C22 XK2 A 263     -12.823  22.532  22.426+24.03 +0.00    -0.000     5.231
ATOM     15  C23 XK2 A 263     -13.613  23.543  23.027+38.88 +0.00    -0.000     5.231
ATOM     16  C24 XK2 A 263     -13.157  24.874  23.052 +5.08 -0.00    -0.000     5.231
ATOM     17  C28 XK2 A 263     -14.859  23.224  23.653+99.99 +0.00    -0.000     5.231
ATOM     18  C25 XK2 A 263     -13.938  25.876  23.679 +5.86 -0.00    -0.000     5.231
ATOM     19  C26 XK2 A 263     -15.165  25.576  24.283+30.67 -0.00    -0.000     5.231
ATOM     20  C27 XK2 A 263     -15.629  24.243  24.271+86.71 +0.00    -0.000     5.231
ATOM     21  C29 XK2 A 263     -15.308  21.894  23.695+99.99 +0.00    -0.002     5.231
ATOM     22  C31 XK2 A 263     -15.200  18.782  26.705+99.99 -0.07    +0.051     5.231
ATOM     23  C32 XK2 A 263     -14.969  17.898  27.926+20.48 +0.03    -0.020     5.231
ATOM     24  C37 XK2 A 263     -15.764  18.072  29.088+99.99 +0.00    -0.004     5.231
ATOM     25  C36 XK2 A 263     -15.471  17.341  30.257+87.25 +0.00    -0.000     5.231
ATOM     26  C35 XK2 A 263     -14.380  16.437  30.272+48.53 +0.00    -0.000     5.231
ATOM     27  C34 XK2 A 263     -13.586  16.244  29.123+40.35 +0.00    -0.000     5.231
ATOM     28  C33 XK2 A 263     -13.888  16.970  27.943 +6.54 +0.01    -0.004     5.231
ATOM     29  C7  XK2 A 263     -10.834  18.296  25.511+52.99 -0.22    +0.133     5.231
ATOM     30  C70 XK2 A 263      -9.808  18.541  24.430+34.80 -0.00    +0.000     5.231
ATOM     31  C71 XK2 A 263      -8.702  19.310  24.835+11.01 +0.00    -0.002     5.231
ATOM     32  C72 XK2 A 263      -7.627  19.462  23.961 +2.69 +0.00    -0.000     5.231
ATOM     33  C73 XK2 A 263      -6.521  20.263  24.359+10.26 +0.00    -0.000     5.231
ATOM     34  C77 XK2 A 263      -7.668  18.838  22.672 +2.40 +0.00    -0.000     5.231
ATOM     35  C74 XK2 A 263      -5.446  20.464  23.458 +7.86 -0.00    -0.000     5.231
ATOM     36  C75 XK2 A 263      -5.487  19.845  22.184 +2.81 +0.00    -0.000     5.231
ATOM     37  C76 XK2 A 263      -6.581  19.033  21.786 +0.50 +0.00    -0.000     5.231
ATOM     38  C78 XK2 A 263      -8.794  18.073  22.268+46.08 +0.00    -0.000     5.231
ATOM     39  C79 XK2 A 263      -9.869  17.934  23.149+66.21 +0.00    -0.002     5.231
ATOM     40  C61 XK2 A 263     -12.438  15.754  23.959+59.25 -0.02    +0.051     5.231
ATOM     41  C62 XK2 A 263     -11.335  14.717  23.915+86.51 +0.00    -0.020     5.231
ATOM     42  C67 XK2 A 263     -10.694  14.350  25.121+43.13 +0.00    -0.004     5.231
ATOM     43  C66 XK2 A 263      -9.668  13.379  25.109+24.50 +0.00    -0.000     5.231
ATOM     44  C65 XK2 A 263      -9.299  12.779  23.889+53.51 -0.00    -0.000     5.231
ATOM     45  C64 XK2 A 263      -9.938  13.144  22.670 +1.39 +0.00    -0.000     5.231
ATOM     46  C63 XK2 A 263     -10.962  14.120  22.681+40.22 +0.00    -0.004     5.231
TER
ENDMDL
MODEL       10
USER    Run = 10
USER    Cluster Rank = 3
USER    Number of conformations in this cluster = 1
USER  
USER    RMSD from reference structure       = 5.960 A
USER  
USER    Estimated Free Energy of Binding    =   +2.68e+03 kcal/mol  [=(1)+(2)+(3)-(4)]
USER    
USER    (1) Final Intermolecular Energy     =   +2.65e+03 kcal/mol
USER        vdW + Hbond + desolv Energy     =   +2.65e+03 kcal/mol
USER        Electrostatic Energy            =   +0.02 kcal/mol
USER    (2) Final Total Internal Energy     =  +26.57 kcal/mol
USER    (3) Torsional Free Energy           =   +2.39 kcal/mol
USER    (4) Unbound System's Energy         =   -2.72 kcal/mol
USER    
USER    
USER  
USER    DPF = config.dpf
USER    NEWDPF move	ligand.pdbqt
USER    NEWDPF about	-9.192000 15.906000 27.947000
USER    NEWDPF tran0	-15.473490 17.729832 27.321860
USER    NEWDPF axisangle0	0.325083 -0.131363 -0.936517 -173.977249
USER    NEWDPF quaternion0	0.324634 -0.131182 -0.935224 -0.052534
USER    NEWDPF dihe0	54.87 -82.06 147.00 -39.76 107.22 -145.75 -82.24 14.50 
USER  
USER                              x       y       z    vdW   Elec        q     RMS 
ATOM      1  C1  XK2 A 263     -15.944  18.437  26.746 +9.42 -0.26    +0.324     5.960
ATOM      2  O1  XK2 A 263     -16.476  19.291  26.052 +9.28 +0.15    -0.247     5.960
ATOM      3  N2  XK2 A 263     -15.399  17.359  26.106 +0.71 +0.33    -0.298     5.960
ATOM      4  C3  XK2 A 263     -15.316  16.006  26.694 +9.64 -0.07    +0.123     5.960
ATOM      5  C4  XK2 A 263     -14.388  15.822  27.889 +5.06 -0.14    +0.205     5.960
ATOM      6  O4  XK2 A 263     -14.262  14.431  27.984 +8.01 +0.05    -0.219     5.960
ATOM      7  C5  XK2 A 263     -14.944  16.459  29.154+99.99 -0.10    +0.205     5.960
ATOM      8  O5  XK2 A 263     -14.150  16.161  30.272+12.21 +0.15    -0.219     5.960
ATOM      9  C6  XK2 A 263     -14.954  17.977  29.028+97.09 -0.08    +0.123     5.960
ATOM     10  N7  XK2 A 263     -15.927  18.590  28.108+24.62 +0.18    -0.298     5.960
ATOM     11  C2  XK2 A 263     -15.131  17.542  24.674+97.34 -0.10    +0.133     5.960
ATOM     12  C20 XK2 A 263     -14.232  18.658  24.211+99.99 -0.00    +0.000     5.960
ATOM     13  C21 XK2 A 263     -12.879  18.776  24.638+99.99 +0.00    -0.002     5.960
ATOM     14  C22 XK2 A 263     -12.131  19.924  24.304+99.99 +0.00    -0.000     5.960
ATOM     15  C23 XK2 A 263     -12.749  20.941  23.534+99.99 +0.00    -0.000     5.960
ATOM     16  C24 XK2 A 263     -12.049  22.124  23.234+92.13 +0.00    -0.000     5.960
ATOM     17  C28 XK2 A 263     -14.101  20.803  23.089+40.41 +0.00    -0.000     5.960
ATOM     18  C25 XK2 A 263     -12.682  23.149  22.489 +9.00 +0.00    -0.000     5.960
ATOM     19  C26 XK2 A 263     -14.000  23.019  22.038+19.92 +0.00    -0.000     5.960
ATOM     20  C27 XK2 A 263     -14.716  21.839  22.339+99.88 +0.00    -0.000     5.960
ATOM     21  C29 XK2 A 263     -14.843  19.659  23.426+35.80 +0.00    -0.002     5.960
ATOM     22  C31 XK2 A 263     -16.758  15.420  26.841+21.65 -0.01    +0.051     5.960
ATOM     23  C32 XK2 A 263     -16.906  14.583  28.107+46.66 -0.00    -0.020     5.960
ATOM     24  C37 XK2 A 263     -18.009  14.797  28.973+13.86 -0.00    -0.004     5.960
ATOM     25  C36 XK2 A 263     -18.081  14.111  30.203+22.49 -0.00    -0.000     5.960
ATOM     26  C35 XK2 A 263     -17.049  13.213  30.574+10.91 -0.00    -0.000     5.960
ATOM     27  C34 XK2 A 263     -15.952  12.981  29.720 +7.75 -0.00    -0.000     5.960
ATOM     28  C33 XK2 A 263     -15.885  13.661  28.478 +7.33 -0.00    -0.004     5.960
ATOM     29  C7  XK2 A 263     -16.839  19.582  28.685+14.19 -0.05    +0.133     5.960
ATOM     30  C70 XK2 A 263     -17.335  19.406  30.101+21.27 -0.00    +0.000     5.960
ATOM     31  C71 XK2 A 263     -17.159  18.113  30.628+67.07 -0.00    -0.002     5.960
ATOM     32  C72 XK2 A 263     -17.439  17.888  31.974 +0.13 -0.00    -0.000     5.960
ATOM     33  C73 XK2 A 263     -17.288  16.575  32.500+71.30 -0.00    -0.000     5.960
ATOM     34  C77 XK2 A 263     -17.902  18.968  32.792 +0.92 -0.00    -0.000     5.960
ATOM     35  C74 XK2 A 263     -17.618  16.325  33.855+99.99 +0.00    -0.000     5.960
ATOM     36  C75 XK2 A 263     -18.074  17.395  34.664+66.06 +0.00    -0.000     5.960
ATOM     37  C76 XK2 A 263     -18.213  18.710  34.149+34.32 -0.00    -0.000     5.960
ATOM     38  C78 XK2 A 263     -18.088  20.267  32.249+14.69 -0.00    -0.000     5.960
ATOM     39  C79 XK2 A 263     -17.811  20.480  30.896+52.87 +0.00    -0.002     5.960
ATOM     40  C61 XK2 A 263     -13.586  18.657  28.790+87.84 -0.11    +0.051     5.960
ATOM     41  C62 XK2 A 263     -13.752  20.110  28.396+99.99 +0.06    -0.020     5.960
ATOM     42  C67 XK2 A 263     -12.614  20.950  28.390+99.99 +0.02    -0.004     5.960
ATOM     43  C66 XK2 A 263     -12.738  22.308  28.018 +6.89 +0.00    -0.000     5.960
ATOM     44  C65 XK2 A 263     -14.002  22.809  27.650+82.47 +0.00    -0.000     5.960
ATOM     45  C64 XK2 A 263     -15.153  21.971  27.655+49.13 +0.00    -0.000     5.960
ATOM     46  C63 XK2 A 263     -15.029  20.614  28.032+35.12 +0.01    -0.004     5.960
TER
ENDMDL
MODEL        1
USER    Run = 1
USER    Cluster Rank = 4
USER    Number of conformations in this cluster = 1
USER  
USER    RMSD from reference structure       = 3.918 A
USER  
USER    Estimated Free Energy of Binding    =   +3.08e+03 kcal/mol  [=(1)+(2)+(3)-(4)]
USER    
USER    (1) Final Intermolecular Energy     =   +2.95e+03 kcal/mol
USER        vdW + Hbond + desolv Energy     =   +2.95e+03 kcal/mol
USER        Electrostatic Energy            =   -0.11 kcal/mol
USER    (2) Final Total Internal Energy     = +129.65 kcal/mol
USER    (3) Torsional Free Energy           =   +2.39 kcal/mol
USER    (4) Unbound System's Energy         =   -2.72 kcal/mol
USER    
USER    
USER  
USER    DPF = config.dpf
USER    NEWDPF move	ligand.pdbqt
USER    NEWDPF about	-9.192000 15.906000 27.947000
USER    NEWDPF tran0	-13.750961 16.364504 26.224769
USER    NEWDPF axisangle0	-0.330007 0.233826 0.914561 -80.945379
USER    NEWDPF quaternion0	-0.214203 0.151773 0.593628 -0.760715
USER    NEWDPF dihe0	153.62 151.46 -179.33 -111.22 -101.14 -175.56 176.75 62.50 
USER  
USER                              x       y       z    vdW   Elec        q     RMS 
ATOM      1  C1  XK2 A 263     -12.787  16.683  26.072+99.99 -0.89    +0.324     3.918
ATOM      2  O1  XK2 A 263     -11.631  17.032  25.884 +3.59 +0.44    -0.247     3.918
ATOM      3  N2  XK2 A 263     -13.561  16.453  24.969+36.84 +0.37    -0.298     3.918
ATOM      4  C3  XK2 A 263     -15.023  16.666  24.928+99.99 -0.08    +0.123     3.918
ATOM      5  C4  XK2 A 263     -15.885  15.742  25.779+99.99 -0.07    +0.205     3.918
ATOM      6  O4  XK2 A 263     -17.173  15.952  25.273 +2.93 +0.05    -0.219     3.918
ATOM      7  C5  XK2 A 263     -15.769  16.052  27.265+99.99 -0.08    +0.205     3.918
ATOM      8  O5  XK2 A 263     -16.672  15.290  28.021+99.99 -0.01    -0.219     3.918
ATOM      9  C6  XK2 A 263     -14.378  15.701  27.777 +3.59 -0.08    +0.123     3.918
ATOM     10  N7  XK2 A 263     -13.250  16.549  27.356+18.01 +0.59    -0.298     3.918
ATOM     11  C2  XK2 A 263     -12.828  16.234  23.716+99.99 -0.07    +0.133     3.918
ATOM     12  C20 XK2 A 263     -11.652  17.110  23.366+49.25 -0.00    +0.000     3.918
ATOM     13  C21 XK2 A 263     -11.299  17.415  22.022+60.01 +0.00    -0.002     3.918
ATOM     14  C22 XK2 A 263     -10.101  18.104  21.746+45.61 +0.00    -0.000     3.918
ATOM     15  C23 XK2 A 263      -9.270  18.489  22.828+63.29 -0.00    -0.000     3.918
ATOM     16  C24 XK2 A 263      -8.040  19.126  22.582+20.46 -0.00    -0.000     3.918
ATOM     17  C28 XK2 A 263      -9.645  18.199  24.177+19.53 +0.00    -0.000     3.918
ATOM     18  C25 XK2 A 263      -7.201  19.483  23.666 +0.27 +0.00    -0.000     3.918
ATOM     19  C26 XK2 A 263      -7.564  19.216  24.991+13.28 +0.00    -0.000     3.918
ATOM     20  C27 XK2 A 263      -8.793  18.570  25.249+23.70 +0.00    -0.000     3.918
ATOM     21  C29 XK2 A 263     -10.839  17.511  24.447+27.22 +0.00    -0.002     3.918
ATOM     22  C31 XK2 A 263     -15.322  18.196  25.045+59.49 -0.04    +0.051     3.918
ATOM     23  C32 XK2 A 263     -15.958  18.550  26.386+16.70 +0.02    -0.020     3.918
ATOM     24  C37 XK2 A 263     -17.140  19.332  26.425+42.91 +0.00    -0.004     3.918
ATOM     25  C36 XK2 A 263     -17.659  19.762  27.664+17.85 +0.00    -0.000     3.918
ATOM     26  C35 XK2 A 263     -16.994  19.418  28.868+26.95 +0.00    -0.000     3.918
ATOM     27  C34 XK2 A 263     -15.824  18.633  28.847+99.99 +0.00    -0.000     3.918
ATOM     28  C33 XK2 A 263     -15.309  18.189  27.602+16.46 +0.00    -0.004     3.918
ATOM     29  C7  XK2 A 263     -12.454  17.158  28.425+99.99 -0.26    +0.133     3.918
ATOM     30  C70 XK2 A 263     -12.616  16.674  29.846+36.39 -0.00    +0.000     3.918
ATOM     31  C71 XK2 A 263     -13.951  16.524  30.266+83.44 +0.00    -0.002     3.918
ATOM     32  C72 XK2 A 263     -14.209  15.936  31.502+30.94 +0.00    -0.000     3.918
ATOM     33  C73 XK2 A 263     -15.557  15.811  31.939+26.12 -0.00    -0.000     3.918
ATOM     34  C77 XK2 A 263     -13.118  15.500  32.321 +1.13 +0.00    -0.000     3.918
ATOM     35  C74 XK2 A 263     -15.828  15.260  33.215+61.19 -0.00    -0.000     3.918
ATOM     36  C75 XK2 A 263     -14.748  14.827  34.024 +7.60 +0.00    -0.000     3.918
ATOM     37  C76 XK2 A 263     -13.402  14.935  33.588 +1.06 +0.00    -0.000     3.918
ATOM     38  C78 XK2 A 263     -11.774  15.665  31.894+29.60 +0.00    -0.000     3.918
ATOM     39  C79 XK2 A 263     -11.527  16.263  30.656+48.86 +0.00    -0.002     3.918
ATOM     40  C61 XK2 A 263     -13.941  14.227  27.628+33.43 -0.01    +0.051     3.918
ATOM     41  C62 XK2 A 263     -13.104  14.021  26.382+44.87 +0.01    -0.020     3.918
ATOM     42  C67 XK2 A 263     -12.126  14.987  26.050+24.50 +0.00    -0.004     3.918
ATOM     43  C66 XK2 A 263     -11.324  14.815  24.898+33.50 +0.00    -0.000     3.918
ATOM     44  C65 XK2 A 263     -11.507  13.673  24.095+29.84 +0.00    -0.000     3.918
ATOM     45  C64 XK2 A 263     -12.490  12.696  24.422+99.99 +0.00    -0.000     3.918
ATOM     46  C63 XK2 A 263     -13.296  12.871  25.571+99.99 +0.00    -0.004     3.918
TER
ENDMDL
MODEL        3
USER    Run = 3
USER    Cluster Rank = 5
USER    Number of conformations in this cluster = 2
USER  
USER    RMSD from reference structure       = 3.978 A
USER  
USER    Estimated Free Energy of Binding    =   +4.31e+03 kcal/mol  [=(1)+(2)+(3)-(4)]
USER    
USER    (1) Final Intermolecular Energy     =   +4.22e+03 kcal/mol
USER        vdW + Hbond + desolv Energy     =   +4.22e+03 kcal/mol
USER        Electrostatic Energy            =   +0.00 kcal/mol
USER    (2) Final Total Internal Energy     =  +89.90 kcal/mol
USER    (3) Torsional Free Energy           =   +2.39 kcal/mol
USER    (4) Unbound System's Energy         =   -2.72 kcal/mol
USER    
USER    
USER  
USER    DPF = config.dpf
USER    NEWDPF move	ligand.pdbqt
USER    NEWDPF about	-9.192000 15.906000 27.947000
USER    NEWDPF tran0	-13.417957 16.813392 28.049330
USER    NEWDPF axisangle0	0.907121 0.023701 0.420202 -111.254646
USER    NEWDPF quaternion0	0.748722 0.019563 0.346828 -0.564573
USER    NEWDPF dihe0	-119.49 -70.17 122.69 -142.16 -152.81 156.24 173.64 -176.69 
USER  
USER                              x       y       z    vdW   Elec        q     RMS 
ATOM      1  C1  XK2 A 263     -12.667  17.358  27.611+99.99 -1.10    +0.324     3.978
ATOM      2  O1  XK2 A 263     -11.794  18.021  27.069+99.99 +0.95    -0.247     3.978
ATOM      3  N2  XK2 A 263     -13.434  17.982  28.554+18.18 +0.73    -0.298     3.978
ATOM      4  C3  XK2 A 263     -14.033  17.294  29.717+94.56 -0.14    +0.123     3.978
ATOM      5  C4  XK2 A 263     -15.130  16.276  29.434+99.99 -0.07    +0.205     3.978
ATOM      6  O4  XK2 A 263     -15.711  16.074  30.692 +1.60 -0.05    -0.219     3.978
ATOM      7  C5  XK2 A 263     -14.585  14.996  28.816+85.41 -0.04    +0.205     3.978
ATOM      8  O5  XK2 A 263     -15.584  14.019  28.692 -0.02 -0.03    -0.219     3.978
ATOM      9  C6  XK2 A 263     -14.068  15.262  27.408 +6.37 -0.07    +0.123     3.978
ATOM     10  N7  XK2 A 263     -12.828  16.042  27.261+99.99 +0.33    -0.298     3.978
ATOM     11  C2  XK2 A 263     -13.421  19.450  28.512+99.99 -0.42    +0.133     3.978
ATOM     12  C20 XK2 A 263     -12.114  20.189  28.383+99.99 -0.00    +0.000     3.978
ATOM     13  C21 XK2 A 263     -12.036  21.527  27.904+99.99 +0.01    -0.002     3.978
ATOM     14  C22 XK2 A 263     -10.780  22.114  27.651+99.99 +0.00    -0.000     3.978
ATOM     15  C23 XK2 A 263      -9.609  21.352  27.892+99.92 +0.00    -0.000     3.978
ATOM     16  C24 XK2 A 263      -8.343  21.889  27.594+35.72 +0.00    -0.000     3.978
ATOM     17  C28 XK2 A 263      -9.696  20.017  28.396+99.99 +0.00    -0.000     3.978
ATOM     18  C25 XK2 A 263      -7.179  21.112  27.810+73.99 +0.00    -0.000     3.978
ATOM     19  C26 XK2 A 263      -7.252  19.809  28.315+46.75 +0.00    -0.000     3.978
ATOM     20  C27 XK2 A 263      -8.517  19.257  28.610+99.99 +0.00    -0.000     3.978
ATOM     21  C29 XK2 A 263     -10.950  19.435  28.644+99.99 +0.01    -0.002     3.978
ATOM     22  C31 XK2 A 263     -12.893  16.832  30.684+37.58 -0.05    +0.051     3.978
ATOM     23  C32 XK2 A 263     -13.405  15.866  31.746 +9.66 +0.01    -0.020     3.978
ATOM     24  C37 XK2 A 263     -14.639  16.119  32.399+12.05 +0.00    -0.004     3.978
ATOM     25  C36 XK2 A 263     -15.053  15.295  33.466 +3.66 +0.00    -0.000     3.978
ATOM     26  C35 XK2 A 263     -14.233  14.218  33.888 +0.66 +0.00    -0.000     3.978
ATOM     27  C34 XK2 A 263     -13.009  13.946  33.243 +4.32 +0.00    -0.000     3.978
ATOM     28  C33 XK2 A 263     -12.599  14.768  32.162+10.02 +0.00    -0.004     3.978
ATOM     29  C7  XK2 A 263     -11.737  15.405  26.518+99.99 -0.06    +0.133     3.978
ATOM     30  C70 XK2 A 263     -10.993  16.190  25.464+39.67 -0.00    +0.000     3.978
ATOM     31  C71 XK2 A 263     -11.707  16.389  24.268+23.43 +0.00    -0.002     3.978
ATOM     32  C72 XK2 A 263     -11.175  17.231  23.294+99.99 +0.00    -0.000     3.978
ATOM     33  C73 XK2 A 263     -11.882  17.409  22.073+20.37 +0.00    -0.000     3.978
ATOM     34  C77 XK2 A 263      -9.915  17.872  23.524+65.91 +0.00    -0.000     3.978
ATOM     35  C74 XK2 A 263     -11.325  18.224  21.057+99.99 +0.00    -0.000     3.978
ATOM     36  C75 XK2 A 263     -10.079  18.859  21.286+45.19 -0.00    -0.000     3.978
ATOM     37  C76 XK2 A 263      -9.375  18.697  22.507+96.11 -0.00    -0.000     3.978
ATOM     38  C78 XK2 A 263      -9.196  17.657  24.729+35.98 +0.00    -0.000     3.978
ATOM     39  C79 XK2 A 263      -9.736  16.805  25.696+99.99 +0.00    -0.002     3.978
ATOM     40  C61 XK2 A 263     -15.093  15.807  26.389+37.11 -0.03    +0.051     3.978
ATOM     41  C62 XK2 A 263     -15.568  17.195  26.771+20.14 +0.02    -0.020     3.978
ATOM     42  C67 XK2 A 263     -16.511  17.846  25.942 +6.06 +0.00    -0.004     3.978
ATOM     43  C66 XK2 A 263     -16.977  19.137  26.279+28.65 +0.00    -0.000     3.978
ATOM     44  C65 XK2 A 263     -16.498  19.760  27.447 +7.63 +0.00    -0.000     3.978
ATOM     45  C64 XK2 A 263     -15.547  19.112  28.287+61.32 +0.00    -0.000     3.978
ATOM     46  C63 XK2 A 263     -15.077  17.822  27.946+33.73 +0.00    -0.004     3.978
TER
ENDMDL
MODEL        6
USER    Run = 6
USER    Cluster Rank = 6
USER    Number of conformations in this cluster = 1
USER  
USER    RMSD from reference structure       = 5.058 A
USER  
USER    Estimated Free Energy of Binding    =   +4.44e+03 kcal/mol  [=(1)+(2)+(3)-(4)]
USER    
USER    (1) Final Intermolecular Energy     =   +4.40e+03 kcal/mol
USER        vdW + Hbond + desolv Energy     =   +4.40e+03 kcal/mol
USER        Electrostatic Energy            =   -0.55 kcal/mol
USER    (2) Final Total Internal Energy     =  +42.53 kcal/mol
USER    (3) Torsional Free Energy           =   +2.39 kcal/mol
USER    (4) Unbound System's Energy         =   -2.72 kcal/mol
USER    
USER    
USER  
USER    DPF = config.dpf
USER    NEWDPF move	ligand.pdbqt
USER    NEWDPF about	-9.192000 15.906000 27.947000
USER    NEWDPF tran0	-8.933021 20.910656 29.820414
USER    NEWDPF axisangle0	0.508086 0.041285 -0.860316 102.024236
USER    NEWDPF quaternion0	0.394925 0.032090 -0.668706 0.629156
USER    NEWDPF dihe0	60.56 179.82 -60.61 8.53 -83.76 162.80 88.63 41.49 
USER  
USER                              x       y       z    vdW   Elec        q     RMS 
ATOM      1  C1  XK2 A 263      -8.186  21.592  29.999+99.99 -1.02    +0.324     5.058
ATOM      2  O1  XK2 A 263      -7.276  22.379  30.213 -0.28 +0.21    -0.247     5.058
ATOM      3  N2  XK2 A 263      -8.279  21.068  28.740+99.99 +1.21    -0.298     5.058
ATOM      4  C3  XK2 A 263      -9.552  20.670  28.103+99.99 -0.58    +0.123     5.058
ATOM      5  C4  XK2 A 263     -10.286  19.477  28.702+99.99 -0.87    +0.205     5.058
ATOM      6  O4  XK2 A 263     -11.218  19.146  27.711+99.99 +0.93    -0.219     5.058
ATOM      7  C5  XK2 A 263     -10.931  19.809  30.040+99.99 -1.02    +0.205     5.058
ATOM      8  O5  XK2 A 263     -11.718  18.747  30.508+65.85 +0.51    -0.219     5.058
ATOM      9  C6  XK2 A 263      -9.864  20.052  31.100+99.99 -0.34    +0.123     5.058
ATOM     10  N7  XK2 A 263      -9.062  21.284  31.007+99.99 +0.79    -0.298     5.058
ATOM     11  C2  XK2 A 263      -7.062  21.163  27.923+99.99 -0.13    +0.133     5.058
ATOM     12  C20 XK2 A 263      -7.140  21.685  26.512+99.99 -0.00    +0.000     5.058
ATOM     13  C21 XK2 A 263      -6.520  21.021  25.416+39.10 +0.00    -0.002     5.058
ATOM     14  C22 XK2 A 263      -6.487  21.634  24.147+32.67 +0.00    -0.000     5.058
ATOM     15  C23 XK2 A 263      -7.087  22.908  23.988+11.98 +0.00    -0.000     5.058
ATOM     16  C24 XK2 A 263      -7.019  23.572  22.749+11.85 +0.00    -0.000     5.058
ATOM     17  C28 XK2 A 263      -7.728  23.557  25.089 +8.14 +0.00    -0.000     5.058
ATOM     18  C25 XK2 A 263      -7.596  24.857  22.605+32.68 -0.00    -0.000     5.058
ATOM     19  C26 XK2 A 263      -8.237  25.496  23.672 +4.41 -0.00    -0.000     5.058
ATOM     20  C27 XK2 A 263      -8.304  24.843  24.923 +3.76 +0.00    -0.000     5.058
ATOM     21  C29 XK2 A 263      -7.757  22.944  26.353+99.99 +0.00    -0.002     5.058
ATOM     22  C31 XK2 A 263     -10.411  21.948  27.832+99.99 -0.14    +0.051     5.058
ATOM     23  C32 XK2 A 263      -9.624  23.228  28.092+28.08 +0.02    -0.020     5.058
ATOM     24  C37 XK2 A 263      -9.721  24.316  27.186+24.04 +0.00    -0.004     5.058
ATOM     25  C36 XK2 A 263      -8.902  25.450  27.359+17.29 +0.00    -0.000     5.058
ATOM     26  C35 XK2 A 263      -7.978  25.499  28.432+46.64 +0.00    -0.000     5.058
ATOM     27  C34 XK2 A 263      -7.876  24.432  29.347+52.92 +0.00    -0.000     5.058
ATOM     28  C33 XK2 A 263      -8.709  23.296  29.181+36.91 +0.00    -0.004     5.058
ATOM     29  C7  XK2 A 263      -9.076  22.164  32.179+59.05 -0.09    +0.133     5.058
ATOM     30  C70 XK2 A 263     -10.023  21.875  33.319 +6.60 -0.00    +0.000     5.058
ATOM     31  C71 XK2 A 263     -11.385  22.047  33.009+47.40 +0.00    -0.002     5.058
ATOM     32  C72 XK2 A 263     -12.345  21.658  33.940+99.99 +0.00    -0.000     5.058
ATOM     33  C73 XK2 A 263     -13.720  21.858  33.638+88.27 +0.00    -0.000     5.058
ATOM     34  C77 XK2 A 263     -11.932  21.095  35.191+99.99 +0.00    -0.000     5.058
ATOM     35  C74 XK2 A 263     -14.702  21.512  34.599+99.99 +0.00    -0.000     5.058
ATOM     36  C75 XK2 A 263     -14.293  20.954  35.835+99.99 -0.00    -0.000     5.058
ATOM     37  C76 XK2 A 263     -12.923  20.737  36.137+99.99 +0.00    -0.000     5.058
ATOM     38  C78 XK2 A 263     -10.556  20.936  35.500+74.85 +0.00    -0.000     5.058
ATOM     39  C79 XK2 A 263      -9.601  21.336  34.562+13.00 +0.00    -0.002     5.058
ATOM     40  C61 XK2 A 263      -8.898  18.880  31.386 +4.00 -0.06    +0.051     5.058
ATOM     41  C62 XK2 A 263      -8.539  18.805  32.856+26.92 +0.01    -0.020     5.058
ATOM     42  C67 XK2 A 263      -9.532  18.406  33.781+80.38 +0.00    -0.004     5.058
ATOM     43  C66 XK2 A 263      -9.222  18.319  35.157+60.83 +0.00    -0.000     5.058
ATOM     44  C65 XK2 A 263      -7.918  18.626  35.592 +5.69 +0.00    -0.000     5.058
ATOM     45  C64 XK2 A 263      -6.913  19.030  34.667+21.76 +0.00    -0.000     5.058
ATOM     46  C63 XK2 A 263      -7.225  19.122  33.290+79.10 +0.00    -0.004     5.058
TER
ENDMDL
MODEL        7
USER    Run = 7
USER    Cluster Rank = 7
USER    Number of conformations in this cluster = 1
USER  
USER    RMSD from reference structure       = 4.477 A
USER  
USER    Estimated Free Energy of Binding    =   +5.53e+03 kcal/mol  [=(1)+(2)+(3)-(4)]
USER    
USER    (1) Final Intermolecular Energy     =   +5.50e+03 kcal/mol
USER        vdW + Hbond + desolv Energy     =   +5.50e+03 kcal/mol
USER        Electrostatic Energy            =   -0.31 kcal/mol
USER    (2) Final Total Internal Energy     =  +28.89 kcal/mol
USER    (3) Torsional Free Energy           =   +2.39 kcal/mol
USER    (4) Unbound System's Energy         =   -2.72 kcal/mol
USER    
USER    
USER  
USER    DPF = config.dpf
USER    NEWDPF move	ligand.pdbqt
USER    NEWDPF about	-9.192000 15.906000 27.947000
USER    NEWDPF tran0	-13.192714 18.249607 26.968223
USER    NEWDPF axisangle0	0.478562 -0.045809 0.876858 158.145076
USER    NEWDPF quaternion0	0.469884 -0.044979 0.860959 0.189566
USER    NEWDPF dihe0	-7.46 83.46 -6.03 163.74 175.18 -47.36 -169.19 20.31 
USER  
USER                              x       y       z    vdW   Elec        q     RMS 
ATOM      1  C1  XK2 A 263     -13.710  18.818  27.649+99.99 -1.42    +0.324     4.477
ATOM      2  O1  XK2 A 263     -14.338  19.512  28.435+99.99 +0.41    -0.247     4.477
ATOM      3  N2  XK2 A 263     -14.404  17.859  26.965+99.99 +1.10    -0.298     4.477
ATOM      4  C3  XK2 A 263     -13.820  16.578  26.518+46.90 -0.28    +0.123     4.477
ATOM      5  C4  XK2 A 263     -12.752  16.641  25.433+20.66 -0.41    +0.205     4.477
ATOM      6  O4  XK2 A 263     -12.661  15.313  24.998+99.99 +0.12    -0.219     4.477
ATOM      7  C5  XK2 A 263     -11.432  17.190  25.954+29.77 -0.34    +0.205     4.477
ATOM      8  O5  XK2 A 263     -10.423  17.110  24.983+35.15 +0.14    -0.219     4.477
ATOM      9  C6  XK2 A 263     -11.570  18.665  26.309+99.99 -0.51    +0.123     4.477
ATOM     10  N7  XK2 A 263     -12.362  19.021  27.498+99.99 +1.92    -0.298     4.477
ATOM     11  C2  XK2 A 263     -15.861  18.042  26.922+13.99 -0.11    +0.133     4.477
ATOM     12  C20 XK2 A 263     -16.566  18.748  28.051+99.99 -0.00    +0.000     4.477
ATOM     13  C21 XK2 A 263     -17.434  19.855  27.837+14.76 +0.00    -0.002     4.477
ATOM     14  C22 XK2 A 263     -17.941  20.579  28.937 +7.09 +0.00    -0.000     4.477
ATOM     15  C23 XK2 A 263     -17.575  20.175  30.245 +7.50 +0.00    -0.000     4.477
ATOM     16  C24 XK2 A 263     -18.017  20.911  31.361+99.99 -0.00    -0.000     4.477
ATOM     17  C28 XK2 A 263     -16.722  19.046  30.452+17.86 +0.00    -0.000     4.477
ATOM     18  C25 XK2 A 263     -17.625  20.519  32.664+31.77 -0.00    -0.000     4.477
ATOM     19  C26 XK2 A 263     -16.800  19.409  32.878 +4.29 -0.00    -0.000     4.477
ATOM     20  C27 XK2 A 263     -16.345  18.667  31.766 +6.09 +0.00    -0.000     4.477
ATOM     21  C29 XK2 A 263     -16.218  18.330  29.353+97.76 +0.00    -0.002     4.477
ATOM     22  C31 XK2 A 263     -13.484  15.702  27.770+99.99 -0.04    +0.051     4.477
ATOM     23  C32 XK2 A 263     -14.737  15.332  28.557+14.89 +0.01    -0.020     4.477
ATOM     24  C37 XK2 A 263     -15.682  14.431  28.002 +3.28 +0.00    -0.004     4.477
ATOM     25  C36 XK2 A 263     -16.897  14.184  28.673+31.70 -0.00    -0.000     4.477
ATOM     26  C35 XK2 A 263     -17.175  14.840  29.899+27.45 -0.00    -0.000     4.477
ATOM     27  C34 XK2 A 263     -16.242  15.730  30.469+58.86 -0.00    -0.000     4.477
ATOM     28  C33 XK2 A 263     -15.015  15.970  29.800+21.36 +0.00    -0.004     4.477
ATOM     29  C7  XK2 A 263     -11.683  19.815  28.525+99.99 -0.78    +0.133     4.477
ATOM     30  C70 XK2 A 263     -10.189  19.684  28.703+99.99 -0.00    +0.000     4.477
ATOM     31  C71 XK2 A 263      -9.421  20.446  27.803+99.99 +0.01    -0.002     4.477
ATOM     32  C72 XK2 A 263      -8.042  20.518  27.983 +9.76 +0.00    -0.000     4.477
ATOM     33  C73 XK2 A 263      -7.263  21.265  27.057+65.46 +0.00    -0.000     4.477
ATOM     34  C77 XK2 A 263      -7.431  19.816  29.072+14.74 +0.00    -0.000     4.477
ATOM     35  C74 XK2 A 263      -5.854  21.303  27.202+99.99 +0.00    -0.000     4.477
ATOM     36  C75 XK2 A 263      -5.251  20.610  28.281 +7.41 +0.00    -0.000     4.477
ATOM     37  C76 XK2 A 263      -6.024  19.874  29.217+40.51 +0.00    -0.000     4.477
ATOM     38  C78 XK2 A 263      -8.212  19.039  29.968+10.86 +0.00    -0.000     4.477
ATOM     39  C79 XK2 A 263      -9.594  18.969  29.774+99.99 +0.01    -0.002     4.477
ATOM     40  C61 XK2 A 263     -11.987  19.612  25.162+99.99 -0.15    +0.051     4.477
ATOM     41  C62 XK2 A 263     -12.456  18.838  23.947+99.99 +0.02    -0.020     4.477
ATOM     42  C67 XK2 A 263     -11.964  17.528  23.742+42.41 +0.00    -0.004     4.477
ATOM     43  C66 XK2 A 263     -12.392  16.779  22.622+45.48 +0.00    -0.000     4.477
ATOM     44  C65 XK2 A 263     -13.314  17.349  21.722+99.99 +0.00    -0.000     4.477
ATOM     45  C64 XK2 A 263     -13.814  18.668  21.922+35.18 +0.00    -0.000     4.477
ATOM     46  C63 XK2 A 263     -13.381  19.419  23.040+25.71 +0.00    -0.004     4.477
TER
ENDMDL
MODEL        2
USER    Run = 2
USER    Cluster Rank = 8
USER    Number of conformations in this cluster = 1
USER  
USER    RMSD from reference structure       = 3.711 A
USER  
USER    Estimated Free Energy of Binding    =   +6.06e+03 kcal/mol  [=(1)+(2)+(3)-(4)]
USER    
USER    (1) Final Intermolecular Energy     =   +5.88e+03 kcal/mol
USER        vdW + Hbond + desolv Energy     =   +5.88e+03 kcal/mol
USER        Electrostatic Energy            =   +0.84 kcal/mol
USER    (2) Final Total Internal Energy     = +173.64 kcal/mol
USER    (3) Torsional Free Energy           =   +2.39 kcal/mol
USER    (4) Unbound System's Energy         =   -2.72 kcal/mol
USER    
USER    
USER  
USER    DPF = config.dpf
USER    NEWDPF move	ligand.pdbqt
USER    NEWDPF about	-9.192000 15.906000 27.947000
USER    NEWDPF tran0	-9.920702 19.580432 29.446551
USER    NEWDPF axisangle0	0.599066 0.013404 -0.800588 -135.416927
USER    NEWDPF quaternion0	0.554295 0.012402 -0.740756 -0.379319
USER    NEWDPF dihe0	-158.53 124.47 81.92 -167.89 -108.51 107.65 140.95 -71.78 
USER  
USER                              x       y       z    vdW   Elec        q     RMS 
ATOM      1  C1  XK2 A 263     -10.470  19.861  28.626+99.99 -1.76    +0.324     3.711
ATOM      2  O1  XK2 A 263     -11.113  20.225  27.653+40.43 +1.33    -0.247     3.711
ATOM      3  N2  XK2 A 263      -9.136  19.625  28.445+99.99 +1.13    -0.298     3.711
ATOM      4  C3  XK2 A 263      -8.363  18.626  29.213+99.99 -0.14    +0.123     3.711
ATOM      5  C4  XK2 A 263      -8.158  18.897  30.698 +6.70 -0.25    +0.205     3.711
ATOM      6  O4  XK2 A 263      -7.139  18.003  31.048+99.99 +0.09    -0.219     3.711
ATOM      7  C5  XK2 A 263      -9.434  18.693  31.503+18.66 -0.20    +0.205     3.711
ATOM      8  O5  XK2 A 263      -9.196  18.808  32.881+41.06 +0.10    -0.219     3.711
ATOM      9  C6  XK2 A 263     -10.461  19.762  31.154+99.99 -0.28    +0.123     3.711
ATOM     10  N7  XK2 A 263     -11.105  19.700  29.831+99.99 +1.53    -0.298     3.711
ATOM     11  C2  XK2 A 263      -8.544  20.230  27.245+70.61 -0.27    +0.133     3.711
ATOM     12  C20 XK2 A 263      -8.736  19.580  25.899+99.99 -0.00    +0.000     3.711
ATOM     13  C21 XK2 A 263      -7.844  19.797  24.811+46.79 +0.00    -0.002     3.711
ATOM     14  C22 XK2 A 263      -8.157  19.295  23.531+11.88 +0.00    -0.000     3.711
ATOM     15  C23 XK2 A 263      -9.361  18.568  23.359+99.99 +0.00    -0.000     3.711
ATOM     16  C24 XK2 A 263      -9.730  18.104  22.083+51.07 +0.00    -0.000     3.711
ATOM     17  C28 XK2 A 263     -10.239  18.334  24.464+51.16 +0.00    -0.000     3.711
ATOM     18  C25 XK2 A 263     -10.949  17.403  21.912+99.99 +0.00    -0.000     3.711
ATOM     19  C26 XK2 A 263     -11.809  17.157  22.988+37.58 +0.00    -0.000     3.711
ATOM     20  C27 XK2 A 263     -11.453  17.624  24.272+31.60 +0.00    -0.000     3.711
ATOM     21  C29 XK2 A 263      -9.925  18.838  25.736+99.99 +0.00    -0.002     3.711
ATOM     22  C31 XK2 A 263      -8.856  17.192  28.832+99.99 +0.01    +0.051     3.711
ATOM     23  C32 XK2 A 263      -7.751  16.152  28.983+99.99 +0.00    -0.020     3.711
ATOM     24  C37 XK2 A 263      -6.792  15.981  27.952+99.99 +0.00    -0.004     3.711
ATOM     25  C36 XK2 A 263      -5.847  14.939  28.036+99.99 -0.00    -0.000     3.711
ATOM     26  C35 XK2 A 263      -5.859  14.060  29.147+99.99 -0.00    -0.000     3.711
ATOM     27  C34 XK2 A 263      -6.798  14.221  30.186+74.90 -0.00    -0.000     3.711
ATOM     28  C33 XK2 A 263      -7.742  15.277  30.108+99.99 +0.00    -0.004     3.711
ATOM     29  C7  XK2 A 263     -12.569  19.636  29.817+99.99 -0.43    +0.133     3.711
ATOM     30  C70 XK2 A 263     -13.259  18.465  29.159+99.99 -0.00    +0.000     3.711
ATOM     31  C71 XK2 A 263     -14.158  18.814  28.134+61.08 +0.00    -0.002     3.711
ATOM     32  C72 XK2 A 263     -14.727  17.805  27.361+22.57 +0.00    -0.000     3.711
ATOM     33  C73 XK2 A 263     -15.658  18.155  26.344+11.73 +0.00    -0.000     3.711
ATOM     34  C77 XK2 A 263     -14.392  16.437  27.623 +4.90 +0.00    -0.000     3.711
ATOM     35  C74 XK2 A 263     -16.280  17.133  25.586 +2.14 +0.00    -0.000     3.711
ATOM     36  C75 XK2 A 263     -15.947  15.781  25.844+68.81 +0.00    -0.000     3.711
ATOM     37  C76 XK2 A 263     -15.008  15.424  26.847 +5.81 +0.00    -0.000     3.711
ATOM     38  C78 XK2 A 263     -13.493  16.093  28.666+65.78 +0.00    -0.000     3.711
ATOM     39  C79 XK2 A 263     -12.934  17.113  29.440+56.86 +0.00    -0.002     3.711
ATOM     40  C61 XK2 A 263     -10.043  21.228  31.408+99.99 -0.09    +0.051     3.711
ATOM     41  C62 XK2 A 263      -8.598  21.466  31.022+99.99 +0.04    -0.020     3.711
ATOM     42  C67 XK2 A 263      -7.936  20.500  30.228+99.99 +0.01    -0.004     3.711
ATOM     43  C66 XK2 A 263      -6.590  20.701  29.846+45.85 +0.00    -0.000     3.711
ATOM     44  C65 XK2 A 263      -5.923  21.871  30.258+38.73 +0.00    -0.000     3.711
ATOM     45  C64 XK2 A 263      -6.582  22.847  31.058+14.49 +0.00    -0.000     3.711
ATOM     46  C63 XK2 A 263      -7.927  22.644  31.445+18.72 +0.00    -0.004     3.711
TER
ENDMDL
MODEL        4
USER    Run = 4
USER    Cluster Rank = 9
USER    Number of conformations in this cluster = 1
USER  
USER    RMSD from reference structure       = 4.407 A
USER  
USER    Estimated Free Energy of Binding    =   +6.96e+03 kcal/mol  [=(1)+(2)+(3)-(4)]
USER    
USER    (1) Final Intermolecular Energy     =   +6.93e+03 kcal/mol
USER        vdW + Hbond + desolv Energy     =   +6.93e+03 kcal/mol
USER        Electrostatic Energy            =   -0.29 kcal/mol
USER    (2) Final Total Internal Energy     =  +24.19 kcal/mol
USER    (3) Torsional Free Energy           =   +2.39 kcal/mol
USER    (4) Unbound System's Energy         =   -2.72 kcal/mol
USER    
USER    
USER  
USER    DPF = config.dpf
USER    NEWDPF move	ligand.pdbqt
USER    NEWDPF about	-9.192000 15.906000 27.947000
USER    NEWDPF tran0	-7.633688 20.214672 26.790930
USER    NEWDPF axisangle0	0.301468 -0.950659 -0.073241 175.023125
USER    NEWDPF quaternion0	0.301183 -0.949763 -0.073172 0.043418
USER    NEWDPF dihe0	-61.24 -26.75 85.07 -171.47 105.83 -159.70 26.28 -78.41 
USER  
USER                              x       y       z    vdW   Elec        q     RMS 
ATOM      1  C1  XK2 A 263      -7.617  19.204  26.615+99.99 -0.20    +0.324     4.407
ATOM      2  O1  XK2 A 263      -7.575  17.997  26.428+99.99 -0.03    -0.247     4.407
ATOM      3  N2  XK2 A 263      -8.279  19.643  27.727+51.51 +0.51    -0.298     4.407
ATOM      4  C3  XK2 A 263      -8.987  20.938  27.809+58.56 -0.38    +0.123     4.407
ATOM      5  C4  XK2 A 263      -8.136  22.200  27.763+99.23 -0.23    +0.205     4.407
ATOM      6  O4  XK2 A 263      -9.018  23.196  28.199 +3.02 +0.21    -0.219     4.407
ATOM      7  C5  XK2 A 263      -7.575  22.467  26.373+99.99 -0.13    +0.205     4.407
ATOM      8  O5  XK2 A 263      -6.914  23.703  26.315+99.99 +0.04    -0.219     4.407
ATOM      9  C6  XK2 A 263      -6.543  21.410  26.002+28.28 -0.08    +0.123     4.407
ATOM     10  N7  XK2 A 263      -7.020  20.047  25.714+72.74 +0.23    -0.298     4.407
ATOM     11  C2  XK2 A 263      -8.489  18.638  28.777+99.99 -0.14    +0.133     4.407
ATOM     12  C20 XK2 A 263      -8.918  19.067  30.157+28.56 -0.00    +0.000     4.407
ATOM     13  C21 XK2 A 263     -10.106  19.816  30.389+99.99 +0.01    -0.002     4.407
ATOM     14  C22 XK2 A 263     -10.377  20.328  31.675+99.99 +0.00    -0.000     4.407
ATOM     15  C23 XK2 A 263      -9.453  20.074  32.719+99.99 +0.00    -0.000     4.407
ATOM     16  C24 XK2 A 263      -9.665  20.620  33.999+19.00 +0.00    -0.000     4.407
ATOM     17  C28 XK2 A 263      -8.274  19.300  32.482+99.99 +0.00    -0.000     4.407
ATOM     18  C25 XK2 A 263      -8.724  20.386  35.031+99.99 +0.00    -0.000     4.407
ATOM     19  C26 XK2 A 263      -7.574  19.619  34.813 +2.85 +0.00    -0.000     4.407
ATOM     20  C27 XK2 A 263      -7.346  19.072  33.531+30.44 +0.00    -0.000     4.407
ATOM     21  C29 XK2 A 263      -8.007  18.793  31.199+11.16 +0.00    -0.002     4.407
ATOM     22  C31 XK2 A 263     -10.229  20.904  26.859+99.99 -0.14    +0.051     4.407
ATOM     23  C32 XK2 A 263     -11.319  21.870  27.313+99.99 +0.05    -0.020     4.407
ATOM     24  C37 XK2 A 263     -11.019  22.882  28.261+40.77 +0.01    -0.004     4.407
ATOM     25  C36 XK2 A 263     -12.051  23.694  28.773+99.99 +0.00    -0.000     4.407
ATOM     26  C35 XK2 A 263     -13.387  23.496  28.344+99.99 +0.00    -0.000     4.407
ATOM     27  C34 XK2 A 263     -13.701  22.502  27.396+99.99 +0.00    -0.000     4.407
ATOM     28  C33 XK2 A 263     -12.661  21.692  26.871+99.99 +0.01    -0.004     4.407
ATOM     29  C7  XK2 A 263      -6.664  19.491  24.406+29.05 -0.06    +0.133     4.407
ATOM     30  C70 XK2 A 263      -7.743  18.917  23.519 +0.48 -0.00    +0.000     4.407
ATOM     31  C71 XK2 A 263      -8.835  18.360  24.210 +3.96 +0.00    -0.002     4.407
ATOM     32  C72 XK2 A 263      -9.952  17.946  23.488+71.92 +0.00    -0.000     4.407
ATOM     33  C73 XK2 A 263     -11.044  17.357  24.183+43.75 +0.00    -0.000     4.407
ATOM     34  C77 XK2 A 263      -9.969  18.090  22.063+62.50 +0.00    -0.000     4.407
ATOM     35  C74 XK2 A 263     -12.164  16.887  23.453+30.03 +0.00    -0.000     4.407
ATOM     36  C75 XK2 A 263     -12.180  17.032  22.044+11.58 +0.00    -0.000     4.407
ATOM     37  C76 XK2 A 263     -11.100  17.632  21.345+28.79 +0.00    -0.000     4.407
ATOM     38  C78 XK2 A 263      -8.857  18.643  21.374+21.21 -0.00    -0.000     4.407
ATOM     39  C79 XK2 A 263      -7.739  19.048  22.107+33.15 -0.00    -0.002     4.407
ATOM     40  C61 XK2 A 263      -5.312  21.295  26.928+29.28 -0.00    +0.051     4.407
ATOM     41  C62 XK2 A 263      -5.687  21.528  28.378+99.99 +0.01    -0.020     4.407
ATOM     42  C67 XK2 A 263      -4.847  22.338  29.178+12.48 +0.00    -0.004     4.407
ATOM     43  C66 XK2 A 263      -5.177  22.580  30.530+11.59 +0.00    -0.000     4.407
ATOM     44  C65 XK2 A 263      -6.350  22.013  31.066+99.99 +0.00    -0.000     4.407
ATOM     45  C64 XK2 A 263      -7.200  21.195  30.268+11.76 +0.00    -0.000     4.407
ATOM     46  C63 XK2 A 263      -6.866  20.949  28.916 +5.37 +0.00    -0.004     4.407
TER
ENDMDL


AVSFLD: # AVS field file
AVSFLD: #
AVSFLD: # Created by AutoDock
AVSFLD: #
AVSFLD: ndim=2           # number of dimensions in the field
AVSFLD: nspace=1         # number of physical coordinates
AVSFLD: veclen=7         # vector size
AVSFLD: dim1=46          # atoms
AVSFLD: dim2=9           # conformations
AVSFLD: data=Real       # data type (byte,integer,Real,double)
AVSFLD: field=uniform    # field coordinate layout
AVSFLD: label= x y z vdW Elec q RMS
AVSFLD: variable 1 file = config.dlg.pdb filetype = ascii offset = 5 stride = 12
AVSFLD: variable 2 file = config.dlg.pdb filetype = ascii offset = 6 stride = 12
AVSFLD: variable 3 file = config.dlg.pdb filetype = ascii offset = 7 stride = 12
AVSFLD: variable 4 file = config.dlg.pdb filetype = ascii offset = 8 stride = 12
AVSFLD: variable 5 file = config.dlg.pdb filetype = ascii offset = 9 stride = 12
AVSFLD: variable 6 file = config.dlg.pdb filetype = ascii offset = 10 stride = 12
AVSFLD: variable 7 file = config.dlg.pdb filetype = ascii offset = 11 stride = 12
AVSFLD: # end of file

>>> Closing the docking parameter file (DPF)...
This docking finished at:			6:50 11" p.m., 06/09/2026


________________________________________________________________________________

autodock4: Successful Completion on "docking-1151-9zgnt"

Real= 3m 07.75s,  CPU= 3m 07.09s,  System= 0.13s
________________________________________________________________________________

